<?xml version="1.0"?>
<VTKFile type="UnstructuredGrid"  version="0.1"  >
<UnstructuredGrid>
<Piece  NumberOfPoints="40401" NumberOfCells="80000">
<Points>
<DataArray  type="Float64"  NumberOfComponents="3"  format="ascii">0 0 0  0.005 0 0  0.01 0 0  0.015 0 0  0.02 0 0  0.025 0 0  0.03 0 0  0.035 0 0  0.04 0 0  0.045 0 0  0.05 0 0  0.055 0 0  0.06 0 0  0.065 0 0  0.07000000000000001 0 0  0.075 0 0  0.08 0 0  0.08500000000000001 0 0  0.09 0 0  0.095 0 0  0.1 0 0  0.105 0 0  0.11 0 0  0.115 0 0  0.12 0 0  0.125 0 0  0.13 0 0  0.135 0 0  0.14 0 0  0.145 0 0  0.15 0 0  0.155 0 0  0.16 0 0  0.165 0 0  0.17 0 0  0.175 0 0  0.18 0 0  0.185 0 0  0.19 0 0  0.195 0 0  0.2 0 0  0.205 0 0  0.21 0 0  0.215 0 0  0.22 0 0  0.225 0 0  0.23 0 0  0.235 0 0  0.24 0 0  0.245 0 0  0.25 0 0  0.255 0 0  0.26 0 0  0.265 0 0  0.27 0 0  0.275 0 0  0.28 0 0  0.285 0 0  0.29 0 0  0.295 0 0  0.3 0 0  0.305 0 0  0.31 0 0  0.315 0 0  0.32 0 0  0.325 0 0  0.33 0 0  0.335 0 0  0.34 0 0  0.345 0 0  0.35 0 0  0.355 0 0  0.36 0 0  0.365 0 0  0.37 0 0  0.375 0 0  0.38 0 0  0.385 0 0  0.39 0 0  0.395 0 0  0.4 0 0  0.405 0 0  0.41 0 0  0.415 0 0  0.42 0 0  0.425 0 0  0.43 0 0  0.435 0 0  0.44 0 0  0.445 0 0  0.45 0 0  0.455 0 0  0.46 0 0  0.465 0 0  0.47 0 0  0.475 0 0  0.48 0 0  0.485 0 0  0.49 0 0  0.495 0 0  0.5 0 0  0.505 0 0  0.51 0 0  0.515 0 0  0.52 0 0  0.525 0 0  0.53 0 0  0.535 0 0  0.54 0 0  0.545 0 0  0.55 0 0  0.555 0 0  0.5600000000000001 0 0  0.5649999999999999 0 0  0.57 0 0  0.575 0 0  0.58 0 0  0.585 0 0  0.59 0 0  0.595 0 0  0.6 0 0  0.605 0 0  0.61 0 0  0.615 0 0  0.62 0 0  0.625 0 0  0.63 0 0  0.635 0 0  0.64 0 0  0.645 0 0  0.65 0 0  0.655 0 0  0.66 0 0  0.665 0 0  0.67 0 0  0.675 0 0  0.68 0 0  0.6850000000000001 0 0  0.6899999999999999 0 0  0.695 0 0  0.7 0 0  0.705 0 0  0.71 0 0  0.715 0 0  0.72 0 0  0.725 0 0  0.73 0 0  0.735 0 0  0.74 0 0  0.745 0 0  0.75 0 0  0.755 0 0  0.76 0 0  0.765 0 0  0.77 0 0  0.775 0 0  0.78 0 0  0.785 0 0  0.79 0 0  0.795 0 0  0.8 0 0  0.805 0 0  0.8100000000000001 0 0  0.8149999999999999 0 0  0.82 0 0  0.825 0 0  0.83 0 0  0.835 0 0  0.84 0 0  0.845 0 0  0.85 0 0  0.855 0 0  0.86 0 0  0.865 0 0  0.87 0 0  0.875 0 0  0.88 0 0  0.885 0 0  0.89 0 0  0.895 0 0  0.9 0 0  0.905 0 0  0.91 0 0  0.915 0 0  0.92 0 0  0.925 0 0  0.93 0 0  0.9350000000000001 0 0  0.9399999999999999 0 0  0.945 0 0  0.95 0 0  0.955 0 0  0.96 0 0  0.965 0 0  0.97 0 0  0.975 0 0  0.98 0 0  0.985 0 0  0.99 0 0  0.995 0 0  1 0 0  0 0.005 0  0.005 0.005 0  0.01 0.005 0  0.015 0.005 0  0.02 0.005 0  0.025 0.005 0  0.03 0.005 0  0.035 0.005 0  0.04 0.005 0  0.045 0.005 0  0.05 0.005 0  0.055 0.005 0  0.06 0.005 0  0.065 0.005 0  0.07000000000000001 0.005 0  0.075 0.005 0  0.08 0.005 0  0.08500000000000001 0.005 0  0.09 0.005 0  0.095 0.005 0  0.1 0.005 0  0.105 0.005 0  0.11 0.005 0  0.115 0.005 0  0.12 0.005 0  0.125 0.005 0  0.13 0.005 0  0.135 0.005 0  0.14 0.005 0  0.145 0.005 0  0.15 0.005 0  0.155 0.005 0  0.16 0.005 0  0.165 0.005 0  0.17 0.005 0  0.175 0.005 0  0.18 0.005 0  0.185 0.005 0  0.19 0.005 0  0.195 0.005 0  0.2 0.005 0  0.205 0.005 0  0.21 0.005 0  0.215 0.005 0  0.22 0.005 0  0.225 0.005 0  0.23 0.005 0  0.235 0.005 0  0.24 0.005 0  0.245 0.005 0  0.25 0.005 0  0.255 0.005 0  0.26 0.005 0  0.265 0.005 0  0.27 0.005 0  0.275 0.005 0  0.28 0.005 0  0.285 0.005 0  0.29 0.005 0  0.295 0.005 0  0.3 0.005 0  0.305 0.005 0  0.31 0.005 0  0.315 0.005 0  0.32 0.005 0  0.325 0.005 0  0.33 0.005 0  0.335 0.005 0  0.34 0.005 0  0.345 0.005 0  0.35 0.005 0  0.355 0.005 0  0.36 0.005 0  0.365 0.005 0  0.37 0.005 0  0.375 0.005 0  0.38 0.005 0  0.385 0.005 0  0.39 0.005 0  0.395 0.005 0  0.4 0.005 0  0.405 0.005 0  0.41 0.005 0  0.415 0.005 0  0.42 0.005 0  0.425 0.005 0  0.43 0.005 0  0.435 0.005 0  0.44 0.005 0  0.445 0.005 0  0.45 0.005 0  0.455 0.005 0  0.46 0.005 0  0.465 0.005 0  0.47 0.005 0  0.475 0.005 0  0.48 0.005 0  0.485 0.005 0  0.49 0.005 0  0.495 0.005 0  0.5 0.005 0  0.505 0.005 0  0.51 0.005 0  0.515 0.005 0  0.52 0.005 0  0.525 0.005 0  0.53 0.005 0  0.535 0.005 0  0.54 0.005 0  0.545 0.005 0  0.55 0.005 0  0.555 0.005 0  0.5600000000000001 0.005 0  0.5649999999999999 0.005 0  0.57 0.005 0  0.575 0.005 0  0.58 0.005 0  0.585 0.005 0  0.59 0.005 0  0.595 0.005 0  0.6 0.005 0  0.605 0.005 0  0.61 0.005 0  0.615 0.005 0  0.62 0.005 0  0.625 0.005 0  0.63 0.005 0  0.635 0.005 0  0.64 0.005 0  0.645 0.005 0  0.65 0.005 0  0.655 0.005 0  0.66 0.005 0  0.665 0.005 0  0.67 0.005 0  0.675 0.005 0  0.68 0.005 0  0.6850000000000001 0.005 0  0.6899999999999999 0.005 0  0.695 0.005 0  0.7 0.005 0  0.705 0.005 0  0.71 0.005 0  0.715 0.005 0  0.72 0.005 0  0.725 0.005 0  0.73 0.005 0  0.735 0.005 0  0.74 0.005 0  0.745 0.005 0  0.75 0.005 0  0.755 0.005 0  0.76 0.005 0  0.765 0.005 0  0.77 0.005 0  0.775 0.005 0  0.78 0.005 0  0.785 0.005 0  0.79 0.005 0  0.795 0.005 0  0.8 0.005 0  0.805 0.005 0  0.8100000000000001 0.005 0  0.8149999999999999 0.005 0  0.82 0.005 0  0.825 0.005 0  0.83 0.005 0  0.835 0.005 0  0.84 0.005 0  0.845 0.005 0  0.85 0.005 0  0.855 0.005 0  0.86 0.005 0  0.865 0.005 0  0.87 0.005 0  0.875 0.005 0  0.88 0.005 0  0.885 0.005 0  0.89 0.005 0  0.895 0.005 0  0.9 0.005 0  0.905 0.005 0  0.91 0.005 0  0.915 0.005 0  0.92 0.005 0  0.925 0.005 0  0.93 0.005 0  0.9350000000000001 0.005 0  0.9399999999999999 0.005 0  0.945 0.005 0  0.95 0.005 0  0.955 0.005 0  0.96 0.005 0  0.965 0.005 0  0.97 0.005 0  0.975 0.005 0  0.98 0.005 0  0.985 0.005 0  0.99 0.005 0  0.995 0.005 0  1 0.005 0  0 0.01 0  0.005 0.01 0  0.01 0.01 0  0.015 0.01 0  0.02 0.01 0  0.025 0.01 0  0.03 0.01 0  0.035 0.01 0  0.04 0.01 0  0.045 0.01 0  0.05 0.01 0  0.055 0.01 0  0.06 0.01 0  0.065 0.01 0  0.07000000000000001 0.01 0  0.075 0.01 0  0.08 0.01 0  0.08500000000000001 0.01 0  0.09 0.01 0  0.095 0.01 0  0.1 0.01 0  0.105 0.01 0  0.11 0.01 0  0.115 0.01 0  0.12 0.01 0  0.125 0.01 0  0.13 0.01 0  0.135 0.01 0  0.14 0.01 0  0.145 0.01 0  0.15 0.01 0  0.155 0.01 0  0.16 0.01 0  0.165 0.01 0  0.17 0.01 0  0.175 0.01 0  0.18 0.01 0  0.185 0.01 0  0.19 0.01 0  0.195 0.01 0  0.2 0.01 0  0.205 0.01 0  0.21 0.01 0  0.215 0.01 0  0.22 0.01 0  0.225 0.01 0  0.23 0.01 0  0.235 0.01 0  0.24 0.01 0  0.245 0.01 0  0.25 0.01 0  0.255 0.01 0  0.26 0.01 0  0.265 0.01 0  0.27 0.01 0  0.275 0.01 0  0.28 0.01 0  0.285 0.01 0  0.29 0.01 0  0.295 0.01 0  0.3 0.01 0  0.305 0.01 0  0.31 0.01 0  0.315 0.01 0  0.32 0.01 0  0.325 0.01 0  0.33 0.01 0  0.335 0.01 0  0.34 0.01 0  0.345 0.01 0  0.35 0.01 0  0.355 0.01 0  0.36 0.01 0  0.365 0.01 0  0.37 0.01 0  0.375 0.01 0  0.38 0.01 0  0.385 0.01 0  0.39 0.01 0  0.395 0.01 0  0.4 0.01 0  0.405 0.01 0  0.41 0.01 0  0.415 0.01 0  0.42 0.01 0  0.425 0.01 0  0.43 0.01 0  0.435 0.01 0  0.44 0.01 0  0.445 0.01 0  0.45 0.01 0  0.455 0.01 0  0.46 0.01 0  0.465 0.01 0  0.47 0.01 0  0.475 0.01 0  0.48 0.01 0  0.485 0.01 0  0.49 0.01 0  0.495 0.01 0  0.5 0.01 0  0.505 0.01 0  0.51 0.01 0  0.515 0.01 0  0.52 0.01 0  0.525 0.01 0  0.53 0.01 0  0.535 0.01 0  0.54 0.01 0  0.545 0.01 0  0.55 0.01 0  0.555 0.01 0  0.5600000000000001 0.01 0  0.5649999999999999 0.01 0  0.57 0.01 0  0.575 0.01 0  0.58 0.01 0  0.585 0.01 0  0.59 0.01 0  0.595 0.01 0  0.6 0.01 0  0.605 0.01 0  0.61 0.01 0  0.615 0.01 0  0.62 0.01 0  0.625 0.01 0  0.63 0.01 0  0.635 0.01 0  0.64 0.01 0  0.645 0.01 0  0.65 0.01 0  0.655 0.01 0  0.66 0.01 0  0.665 0.01 0  0.67 0.01 0  0.675 0.01 0  0.68 0.01 0  0.6850000000000001 0.01 0  0.6899999999999999 0.01 0  0.695 0.01 0  0.7 0.01 0  0.705 0.01 0  0.71 0.01 0  0.715 0.01 0  0.72 0.01 0  0.725 0.01 0  0.73 0.01 0  0.735 0.01 0  0.74 0.01 0  0.745 0.01 0  0.75 0.01 0  0.755 0.01 0  0.76 0.01 0  0.765 0.01 0  0.77 0.01 0  0.775 0.01 0  0.78 0.01 0  0.785 0.01 0  0.79 0.01 0  0.795 0.01 0  0.8 0.01 0  0.805 0.01 0  0.8100000000000001 0.01 0  0.8149999999999999 0.01 0  0.82 0.01 0  0.825 0.01 0  0.83 0.01 0  0.835 0.01 0  0.84 0.01 0  0.845 0.01 0  0.85 0.01 0  0.855 0.01 0  0.86 0.01 0  0.865 0.01 0  0.87 0.01 0  0.875 0.01 0  0.88 0.01 0  0.885 0.01 0  0.89 0.01 0  0.895 0.01 0  0.9 0.01 0  0.905 0.01 0  0.91 0.01 0  0.915 0.01 0  0.92 0.01 0  0.925 0.01 0  0.93 0.01 0  0.9350000000000001 0.01 0  0.9399999999999999 0.01 0  0.945 0.01 0  0.95 0.01 0  0.955 0.01 0  0.96 0.01 0  0.965 0.01 0  0.97 0.01 0  0.975 0.01 0  0.98 0.01 0  0.985 0.01 0  0.99 0.01 0  0.995 0.01 0  1 0.01 0  0 0.015 0  0.005 0.015 0  0.01 0.015 0  0.015 0.015 0  0.02 0.015 0  0.025 0.015 0  0.03 0.015 0  0.035 0.015 0  0.04 0.015 0  0.045 0.015 0  0.05 0.015 0  0.055 0.015 0  0.06 0.015 0  0.065 0.015 0  0.07000000000000001 0.015 0  0.075 0.015 0  0.08 0.015 0  0.08500000000000001 0.015 0  0.09 0.015 0  0.095 0.015 0  0.1 0.015 0  0.105 0.015 0  0.11 0.015 0  0.115 0.015 0  0.12 0.015 0  0.125 0.015 0  0.13 0.015 0  0.135 0.015 0  0.14 0.015 0  0.145 0.015 0  0.15 0.015 0  0.155 0.015 0  0.16 0.015 0  0.165 0.015 0  0.17 0.015 0  0.175 0.015 0  0.18 0.015 0  0.185 0.015 0  0.19 0.015 0  0.195 0.015 0  0.2 0.015 0  0.205 0.015 0  0.21 0.015 0  0.215 0.015 0  0.22 0.015 0  0.225 0.015 0  0.23 0.015 0  0.235 0.015 0  0.24 0.015 0  0.245 0.015 0  0.25 0.015 0  0.255 0.015 0  0.26 0.015 0  0.265 0.015 0  0.27 0.015 0  0.275 0.015 0  0.28 0.015 0  0.285 0.015 0  0.29 0.015 0  0.295 0.015 0  0.3 0.015 0  0.305 0.015 0  0.31 0.015 0  0.315 0.015 0  0.32 0.015 0  0.325 0.015 0  0.33 0.015 0  0.335 0.015 0  0.34 0.015 0  0.345 0.015 0  0.35 0.015 0  0.355 0.015 0  0.36 0.015 0  0.365 0.015 0  0.37 0.015 0  0.375 0.015 0  0.38 0.015 0  0.385 0.015 0  0.39 0.015 0  0.395 0.015 0  0.4 0.015 0  0.405 0.015 0  0.41 0.015 0  0.415 0.015 0  0.42 0.015 0  0.425 0.015 0  0.43 0.015 0  0.435 0.015 0  0.44 0.015 0  0.445 0.015 0  0.45 0.015 0  0.455 0.015 0  0.46 0.015 0  0.465 0.015 0  0.47 0.015 0  0.475 0.015 0  0.48 0.015 0  0.485 0.015 0  0.49 0.015 0  0.495 0.015 0  0.5 0.015 0  0.505 0.015 0  0.51 0.015 0  0.515 0.015 0  0.52 0.015 0  0.525 0.015 0  0.53 0.015 0  0.535 0.015 0  0.54 0.015 0  0.545 0.015 0  0.55 0.015 0  0.555 0.015 0  0.5600000000000001 0.015 0  0.
[...]
<PointData  Scalars="f_9"> 
<DataArray  type="Float64"  Name="f_9"  format="ascii">0.0000000000000000e+00  0.0000000000000000e+00  0.0000000000000000e+00  0.0000000000000000e+00  0.0000000000000000e+00  0.0000000000000000e+00  0.0000000000000000e+00  0.0000000000000000e+00  0.0000000000000000e+00  0.0000000000000000e+00  0.0000000000000000e+00  0.0000000000000000e+00  0.0000000000000000e+00  0.0000000000000000e+00  0.0000000000000000e+00  0.0000000000000000e+00  0.0000000000000000e+00  0.0000000000000000e+00  0.0000000000000000e+00  0.0000000000000000e+00  0.0000000000000000e+00  0.0000000000000000e+00  0.0000000000000000e+00  0.0000000000000000e+00  0.0000000000000000e+00  0.0000000000000000e+00  0.0000000000000000e+00  0.0000000000000000e+00  0.0000000000000000e+00  0.0000000000000000e+00  0.0000000000000000e+00  0.0000000000000000e+00  0.0000000000000000e+00  0.0000000000000000e+00  0.0000000000000000e+00  0.0000000000000000e+00  0.0000000000000000e+00  0.0000000000000000e+00  0.0000000000000000e+00  0.0000000000000000e+00  0.0000000000000000e+00  0.0000000000000000e+00  0.0000000000000000e+00  0.0000000000000000e+00  0.0000000000000000e+00  0.0000000000000000e+00  0.0000000000000000e+00  0.0000000000000000e+00  0.0000000000000000e+00  0.0000000000000000e+00  0.0000000000000000e+00  0.0000000000000000e+00  0.0000000000000000e+00  0.0000000000000000e+00  0.0000000000000000e+00  0.0000000000000000e+00  0.0000000000000000e+00  0.0000000000000000e+00  0.0000000000000000e+00  0.0000000000000000e+00  0.0000000000000000e+00  0.0000000000000000e+00  0.0000000000000000e+00  0.0000000000000000e+00  0.0000000000000000e+00  0.0000000000000000e+00  0.0000000000000000e+00  0.0000000000000000e+00  0.0000000000000000e+00  0.0000000000000000e+00  0.0000000000000000e+00  0.0000000000000000e+00  0.0000000000000000e+00  0.0000000000000000e+00  0.0000000000000000e+00  0.0000000000000000e+00  0.0000000000000000e+00  0.0000000000000000e+00  0.0000000000000000e+00  0.0000000000000000e+00  0.0000000000000000e+00  0.0000000000000000e+00  0.0000000000000000e+00  0.0000000000000000e+00  0.0000000000000000e+00  0.0000000000000000e+00  0.0000000000000000e+00  0.0000000000000000e+00  0.0000000000000000e+00  0.0000000000000000e+00  0.0000000000000000e+00  0.0000000000000000e+00  0.0000000000000000e+00  0.0000000000000000e+00  0.0000000000000000e+00  0.0000000000000000e+00  0.0000000000000000e+00  0.0000000000000000e+00  0.0000000000000000e+00  0.0000000000000000e+00  0.0000000000000000e+00  0.0000000000000000e+00  0.0000000000000000e+00  0.0000000000000000e+00  0.0000000000000000e+00  0.0000000000000000e+00  0.0000000000000000e+00  0.0000000000000000e+00  0.0000000000000000e+00  0.0000000000000000e+00  0.0000000000000000e+00  0.0000000000000000e+00  0.0000000000000000e+00  0.0000000000000000e+00  0.0000000000000000e+00  0.0000000000000000e+00  0.0000000000000000e+00  0.0000000000000000e+00  0.0000000000000000e+00  0.0000000000000000e+00  0.0000000000000000e+00  0.0000000000000000e+00  0.0000000000000000e+00  0.0000000000000000e+00  0.0000000000000000e+00  0.0000000000000000e+00  0.0000000000000000e+00  0.0000000000000000e+00  0.0000000000000000e+00  0.0000000000000000e+00  0.0000000000000000e+00  0.0000000000000000e+00  0.0000000000000000e+00  0.0000000000000000e+00  0.0000000000000000e+00  0.0000000000000000e+00  0.0000000000000000e+00  0.0000000000000000e+00  0.0000000000000000e+00  0.0000000000000000e+00  0.0000000000000000e+00  0.0000000000000000e+00  0.0000000000000000e+00  0.0000000000000000e+00  0.0000000000000000e+00  0.0000000000000000e+00  0.0000000000000000e+00  0.0000000000000000e+00  0.0000000000000000e+00  0.0000000000000000e+00  0.0000000000000000e+00  0.0000000000000000e+00  0.0000000000000000e+00  0.0000000000000000e+00  0.0000000000000000e+00  0.0000000000000000e+00  0.0000000000000000e+00  0.0000000000000000e+00  0.0000000000000000e+00  0.0000000000000000e+00  0.0000000000000000e+00  0.0000000000000000e+00  0.0000000000000000e+00  0.0000000000000000e+00  0.0000000000000000e+00  0.0000000000000000e+00  0.0000000000000000e+00  0.0000000000000000e+00  0.0000000000000000e+00  0.0000000000000000e+00  0.0000000000000000e+00  0.0000000000000000e+00  0.0000000000000000e+00  0.0000000000000000e+00  0.0000000000000000e+00  0.0000000000000000e+00  0.0000000000000000e+00  0.0000000000000000e+00  0.0000000000000000e+00  0.0000000000000000e+00  0.0000000000000000e+00  0.0000000000000000e+00  0.0000000000000000e+00  0.0000000000000000e+00  0.0000000000000000e+00  0.0000000000000000e+00  0.0000000000000000e+00  0.0000000000000000e+00  0.0000000000000000e+00  0.0000000000000000e+00  0.0000000000000000e+00  0.0000000000000000e+00  0.0000000000000000e+00  0.0000000000000000e+00  0.0000000000000000e+00  0.0000000000000000e+00  0.0000000000000000e+00  0.0000000000000000e+00  0.0000000000000000e+00  0.0000000000000000e+00  0.0000000000000000e+00  0.0000000000000000e+00  9.6810398533774401e-04  1.9359801136762638e-03  2.9034672564074368e-03  3.8704021020511204e-03  4.8366173324816209e-03  5.8019437716428923e-03  6.7662113693772270e-03  7.7292497412782494e-03  8.6908884892930166e-03  9.6509574034406766e-03  1.0609286595326764e-02  1.1565706590406340e-02  1.2520048394000541e-02  1.3472143539784369e-02  1.4421824126019989e-02  1.5368922842858065e-02  1.6313272992880001e-02  1.7254708506354091e-02  1.8193063952238180e-02  1.9128174545677088e-02  2.0059876152556343e-02  2.0988005291540532e-02  2.1912399133934782e-02  2.2832895501646962e-02  2.3749332863475744e-02  2.4661550329913177e-02  2.5569387646628583e-02  2.6472685186777555e-02  2.7371283942261165e-02  2.8265025514048053e-02  2.9153752101662649e-02  3.0037306491939118e-02  3.0915532047115890e-02  3.1788272692359863e-02  3.2655372902790226e-02  3.3516677690074249e-02  3.4372032588663004e-02  3.5221283641731126e-02  3.6064277386873303e-02  3.6900860841619199e-02  3.7730881488820756e-02  3.8554187261963080e-02  3.9370626530450988e-02  4.0180048084925590e-02  4.0982301122644962e-02  4.1777235232982421e-02  4.2564700383083479e-02  4.3344546903724988e-02  4.4116625475416976e-02  4.4880787114799425e-02  4.5636883161352268e-02  4.6384765264467519e-02  4.7124285370922010e-02  4.7855295712786294e-02  4.8577648795805284e-02  4.9291197388283657e-02  4.9995794510508895e-02  5.0691293424751357e-02  5.1377547625870601e-02  5.2054410832560565e-02  5.2721736979266701e-02  5.3379380208801556e-02  5.4027194865691568e-02  5.4665035490287138e-02  5.5292756813664391e-02  5.5910213753349619e-02  5.6517261409893757e-02  5.7113755064323139e-02  5.7699550176494870e-02  5.8274502384388804e-02  5.8838467504361149e-02  5.9391301532389050e-02  5.9932860646330438e-02  6.0463001209223891e-02  6.0981579773655696e-02  6.1488453087221534e-02  6.1983478099111276e-02  6.2466511967840671e-02  6.2937412070156143e-02  6.3396036011136830e-02  6.3842241635518451e-02  6.4275887040266377e-02  6.4696830588426929e-02  6.5104930924273385e-02  6.5500046989777461e-02  6.5882038042432298e-02  6.6250763674452873e-02  6.6606083833372756e-02  6.6947858844068883e-02  6.7275949432237969e-02  6.7590216749348606e-02  6.7890522399098804e-02  6.8176728465396935e-02  6.8448697541899139e-02  6.8706292763132198e-02  6.8949377837220147e-02  6.9177817080250226e-02  6.9391475452297333e-02  6.9590218595130093e-02  6.9773912871638255e-02  6.9942425407006653e-02  7.0095624131661302e-02  7.0233377826020793e-02  7.0355556167078573e-02  7.0462029776843363e-02  7.0552670272678211e-02  7.0627350319563992e-02  7.0685943684317784e-02  7.0728325291802133e-02  7.0754371283158535e-02  7.0763959076099128e-02  7.0756967427293455e-02  7.0733276496884503e-02  7.0692767915173912e-02  7.0635324851518688e-02  7.0560832085480835e-02  7.0469176080261889e-02  7.0360245058472715e-02  7.0233929080284904e-02  7.0090120124004396e-02  6.9928712169122706e-02  6.9749601281893114e-02  6.9552685703482095e-02  6.9337865940753099e-02  6.9105044859742185e-02  6.8854127781888597e-02  6.8585022583077471e-02  6.8297639795564913e-02  6.7991892712848889e-02  6.7667697497570012e-02  6.7324973292511622e-02  6.6963642334781776e-02  6.6583630073273170e-02  6.6184865289473579e-02  6.5767280221735142e-02  6.5330810693107991e-02  6.4875396242841332e-02  6.4400980261670460e-02  6.3907510131011550e-02  6.3394937366196627e-02  6.2863217763894350e-02  6.2312311553855533e-02  6.1742183555152728e-02  6.1152803337081327e-02  6.0544145384910590e-02  5.9916189270681666e-02  5.9268919829263897e-02  5.8602327339901200e-02  5.7916407713499728e-02  5.7211162685924459e-02  5.6486600017594618e-02  5.5742733699694458e-02  5.4979584167335747e-02  5.4197178520053811e-02  5.3395550750038705e-02  5.2574741978539584e-02  5.1734800700934662e-02  5.0875783040988921e-02  4.9997753014891295e-02  4.9100782805704790e-02  4.8184953048936406e-02  4.7250353130009907e-02  4.6297081494500202e-02  4.5325245972087813e-02  4.4334964115304229e-02  4.3326363554259346e-02  4.2299582368676897e-02  4.1254769478735437e-02  4.0192085056399852e-02  3.9111700959149918e-02  3.8013801188260539e-02  3.6898582374095386e-02  3.5766254291227983e-02  3.4617040406621995e-02  3.3451178464600800e-02  3.2268921112940496e-02  3.1070536575137277e-02  2.9856309374796428e-02  2.8626541119164694e-02  2.7381551350178238e-02  2.6121678473086229e-02  2.4847280774844462e-02  2.3558737547220626e-02  2.2256450333115317e-02  2.0940844319322506e-02  1.9612369905291121e-02  1.8271504486148445e-02  1.6918754500455064e-02  1.5554657810746116e-02  1.4179786510984544e-02  1.2794750295057358e-02  1.1400200584202980e-02  9.9968357174555871e-03  8.5854076950994378e-03  7.1667313096269291e-03  5.7416971791052372e-03  4.3112916274307671e-03  2.8766294019959286e-03  1.4390097907793662e-03  0.0000000000000000e+00  0.0000000000000000e+00  1.9359801136742500e-03  3.8715317599973954e-03  5.8063175269529926e-03  7.7400041202527444e-03  9.6722542058842904e-03  1.1602728067370780e-02  1.3531084866507543e-02  1.5456983411880511e-02  1.7380082651092667e-02  1.9300042000261954e-02  2.1216521572768855e-02  2.3129182343087525e-02  2.5037686267142176e-02  2.6941696372412418e-02  2.8840876826189278e-02  3.0734892987497528e-02  3.2623411446407367e-02  3.4506100053334453e-02  3.6382627940189462e-02  3.8252665534748487e-02  4.0115884569291035e-02  4.1971958084319083e-02  4.3820560427995120e-02  4.5661367251837406e-02  4.7494055503108673e-02  4.9318303414264610e-02  5.1133790489787181e-02  5.2940197490688096e-02  5.4737206416924832e-02  5.6524500487957319e-02  5.8301764121646782e-02  6.0068682911689000e-02  6.1824943603740426e-02  6.3570234070406753e-02  6.5304243285236499e-02  6.7026661295863751e-02  6.8737179196433976e-02  7.0435489099438905e-02  7.2121284107070444e-02  7.3794258282213601e-02  7.5454106619183517e-02  7.7100525014317009e-02  7.8733210236516166e-02  8.0351859897847822e-02  8.1956172424281257e-02  8.3545847026655309e-02  8.5120583671969341e-02  8.6680083055077545e-02  8.8224046570877276e-02  8.9752176287070801e-02  9.1264174917571786e-02  9.2759745796631765e-02  9.4238592853764458e-02  9.5700420589550195e-02  9.7144934052378590e-02  9.8571838816206209e-02  9.9980840959387168e-02  1.0137164704466275e-01  1.0274396410035923e-01  1.0409749960286839e-01  1.0543196146046825e-01  1.0674705799854488e-01  1.0804249794627960e-01  1.0931799042485783e-01  1.1057324493726457e-01  1.1180797135972677e-01  1.1302187993485426e-01  1.1421468126653579e-01  1.1538608631664322e-01  1.1653580640361394e-01  1.1766355320295102e-01  1.1876903874970877e-01  1.1985197544301107e-01  1.2091207605264635e-01  1.2194905372780269e-01  1.2296262200799077e-01  1.2395249483620967e-01  1.2491838657441368e-01  1.2586001202131986e-01  1.2677708643261604e-01  1.2766932554360894e-01  1.2853644559437130e-01  1.2937816335745275e-01  1.3019419616817776e-01  1.3098426195758794e-01  1.3174807928808885e-01  1.3248536739186767e-01  1.3319584621209132e-01  1.3387923644696006e-01  1.3453525959667187e-01  1.3516363801333639e-01  1.3576409495389594e-01  1.3633635463610255e-01  1.3688014229760304e-01  1.3739518425819788e-01  1.3788120798531223e-01  1.3833794216273787e-01  1.3876511676269476e-01  1.3916246312126740e-01  1.3952971401727685e-01  1.3986660375464269e-01  1.4017286824830177e-01  1.4044824511372783e-01  1.4069247376011845e-01  1.4090529548730552e-01  1.4108645358645400e-01  1.4123569344461590e-01  1.4135276265319938e-01  1.4143741112041724e-01  1.4148939118778014e-01  1.4150845775072063e-01  1.4149436838340063e-01  1.4144688346777909e-01  1.4136576632702547e-01  1.4125078336335201e-01  1.4110170420035753e-01  1.4091830182994650e-01  1.4070035276391449e-01  1.4044763719030071e-01  1.4015993913459712e-01  1.3983704662590565e-01  1.3947875186814812e-01  1.3908485141643995e-01  1.3865514635872339e-01  1.3818944250279086e-01  1.3768755056882165e-01  1.3714928638754798e-01  1.3657447110419091e-01  1.3596293138829427e-01  1.3531449964961745e-01  1.3462901426023879e-01  1.3390631978303186e-01  1.3314626720668762e-01  1.3234871418746344e-01  1.3151352529785068e-01  1.3064057228237716e-01  1.2972973432075055e-01  1.2878089829858830e-01  1.2779395908596955e-01  1.2676881982408419e-01  1.2570539222025462e-01  1.2460359685162861e-01  1.2346336347786652e-01  1.2228463136317547e-01  1.2106734960805340e-01  1.1981147749114224e-01  1.1851698482162368e-01  1.1718385230261243e-01  1.1581207190605160e-01  1.1440164725965578e-01  1.1295259404647752e-01  1.1146494041773276e-01  1.0993872741956683e-01  1.0837400943452148e-01  1.0677085463851141e-01  1.0512934547420048e-01  1.0344957914174606e-01  1.0173166810798760e-01  9.9975740635251123e-02  9.8181941331049905e-02  9.6350431720103102e-02  9.4481390840250978e-02  9.2575015863994400e-02  9.0631522747585819e-02  8.8651146909839079e-02  8.6634143943042127e-02  8.4580790358661201e-02  8.2491384370855472e-02  8.0366246721195037e-02  7.8205721548433582e-02  7.6010177307698157e-02  7.3780007744059739e-02  7.1515632926180295e-02  6.9217500346580904e-02  6.6886086096083930e-02  6.4521896121210676e-02  6.2125467574791954e-02  5.9697370271859056e-02  5.7238208265094688e-02  5.4748621556883800e-02  5.2229287968456523e-02  4.9680925190999314e-02  4.7104293049254245e-02  4.4500196015440995e-02  4.1869486021037967e-02  3.9213065626983290e-02  3.6531891630684286e-02  3.3826979213166852e-02  3.1099406765371311e-02  2.8350321584937742e-02  2.5580946713800536e-02  2.2792589309785411e-02  1.9986651143075875e-02  1.7164642138384676e-02  1.4328198457294187e-02  1.1479107656991431e-02  8.6193454255225812e-03  5.7511320400950982e-03  2.8770200982551992e-03  0.0000000000000000e+00  0.0000000000000000e+00  2.9034672563990555e-03  5.8063175269422833e-03  8.7080345760798955e-03  1.1608111043251788e-02  1.4506037062956048e-02  1.7401300957548656e-02  2.0293390235650362e-02  2.3181792346716863e-02  2.6065995218096199e-02  2.8945487641008124e-02  3.1819759553172546e-02  3.4688302249568981e-02  3.7550608542035853e-02  4.0406172881472156e-02  4.3254491451939638e-02  4.6095062243077328e-02  4.8927385105342086e-02  5.1750961791344245e-02  5.4565295985683805e-02  5.7369893325105510e-02  6.0164261410390565e-02  6.2947909811102876e-02  6.5720350064086275e-02  6.8481095666466263e-02  7.1229662063787821e-02  7.3965566633813998e-02  7.6688328666453739e-02  7.9397469340239821e-02  8.2092511695710149e-02  8.4772980606021800e-02  8.7438402745111832e-02  9.0088306553668479e-02  9.2722222203165811e-02  9.5339681558199149e-02  9.7940218137345256e-02  1.0052336707274999e-01  1.0308866506865819e-01  1.0563565035905677e-01  1.0816386266460988e-01  1.1067284314905577e-01  1.1316213437522631e-01  1.1563128026084636e-01  1.1807982603428181e-01  1.2050731819036378e-01  1.2291330444642441e-01  1.2529733369868704e-01  1.2765895597913887e-01  1.2999772241301624e-01  1.3231318517703256e-01  1.3460489745847143e-01  1.3687241341524523e-01  1.3911528813704008e-01  1.4133307760765756e-01  1.4352533866868100e-01  1.4569162898455126e-01  1.4783150700916264e-01  1.4994453195407947e-01  1.5203026375848253e-01  1.5408826306093776e-01  1.5611809117309106e-01  1.5811931005536778e-01  1.6009148229478209e-01  1.6203417108494511e-01  1.6394694020835776e-01  1.6582935402108048e-01  1.6768097743988261e-01  1.6950137593193401e-01  1.7129011550713466e-01  1.7304676271315875e-01  1.7477088463331278e-01  1.7646204888727965e-01  1.7811982363483750e-01  1.7974377758262688e-01  1.8133347999404220e-01  1.8288850070232718e-01  1.8440841012695947e-01  1.8589277929339490e-01  1.8734117985627249e-01  1.8875318412612493e-01  1.9012836509969316e-01  1.9146629649390495e-01  1.9276655278360799e-01  1.9402870924312962e-01  1.9525234199175581e-01  1.9643702804314714e-01  1.9758234535881128e-01  1.9868787290576037e-01  1.9975319071832354e-01  2.0077787996424284e-01  2.0176152301514402e-01  2.0270370352142719e-01  2.0360400649167645e-01  2.0446201837665098e-01  2.0527732715794811e-01  2.0604952244141095e-01  2.0677819555538415e-01  2.0746293965385518e-01  2.0810334982458617e-01  2.0869902320231326e-01  2.0924955908709883e-01  2.0975455906792073e-01  2.1021362715160360e-01  2.1062636989714811e-01  2.1099239655556667e-01  2.1131131921531471e-01  2.1158275295339887e-01  2.1180631599227215e-01  2.1198162986261815e-01  2.1210831957208676e-01  2.1218601378012336e-01  2.1221434497898284e-01  2.1219294968103125e-01  2.1212146861244446e-01  2.1199954691341610e-01  2.1182683434502148e-01  2.1160298550283599e-01  2.1132766003742987e-01  2.1100052288187143e-01  2.1062124448637598e-01  2.1018950106026743e-01  2.0970497482134440e-01  2.0916735425285857e-01  2.0857633436822784e-01  2.0793161698365628e-01  2.0723291099884611e-01  2.0647993268599396e-01  2.0567240598723549e-01  2.0481006282075653e-01  2.0389264339577334e-01  2.0291989653660417e-01  2.0189158001606763e-01  2.0080746089847365e-01  1.9966731589242362e-01  1.9847093171372998e-01  1.9721810545874732e-01  1.9590864498839924e-01  1.9454236932324936e-01  1.9311910904997406e-01  1.9163870673958974e-01  1.9010101737786234e-01  1.8850590880828874e-01  1.8685326218812623e-01  1.8514297245793734e-01  1.8337494882520566e-01  1.8154911526253520e-01  1.7966541102108011e-01  1.7772379115981204e-01  1.7572422709134961e-01  1.7366670714508348e-01  1.7155123714844742e-01  1.6937784102717662e-01  1.6714656142553305e-01  1.6485746034752871e-01  1.6251061982027712e-01  1.6010614258071179e-01  1.5764415278702149e-01  1.5512479675623847e-01  1.5254824372964479e-01  1.4991468666774507e-01  1.4722434307675353e-01  1.4447745586874242e-01  1.4167429425784703e-01  1.3881515469514924e-01  1.3590036184516027e-01  1.3293026960717985e-01  1.2990526218517040e-01  1.2682575521020636e-01  1.2369219692010823e-01  1.2050506940140360e-01  1.1726488989948493e-01  1.1397221220359717e-01  1.1062762811422838e-01  1.0723176900157702e-01  1.0378530746509902e-01  1.0028895910565620e-01  9.6743484423706366e-02  9.3149690859232664e-02  8.9508434991894661e-02  8.5820624923310815e-02  8.2087222867637477e-02  7.8309247981932673e-02  7.4487779474592342e-02  7.0623960038831327e-02  6.6718999669504855e-02  6.2774179936486818e-02  5.8790858807830186e-02  5.4770476143146674e-02  5.0714560015438073e-02  4.6624734073021208e-02  4.2502726230341327e-02  3.8350379090354422e-02  3.4169662673376983e-02  2.9962690294206975e-02  2.5731738854147097e-02  2.1479275509704999e-02  1.7207993848362177e-02  1.2920864691183939e-02  8.6212097161657980e-03  4.3128057945192805e-03  0.0000000000000000e+00  0.0000000000000000e+00  3.8704021020296315e-03  7.7400041202178409e-03  1.1608111043220765e-02  1.5474039959214293e-02  1.9337106896783800e-02  2.3196627057595030e-02  2.7051915496049628e-02  3.0902287741160064e-02  3.4747060298501282e-02  3.8585551041558447e-02  4.2417079515174157e-02  4.6240967171590701e-02  5.0056537554919810e-02  5.3863116445735791e-02  5.7660031974343405e-02  6.1446614708991952e-02  6.5222197723677669e-02  6.8986116649041293e-02  7.2737709709042836e-02  7.6476317745484010e-02  8.0201284232043854e-02  8.3911955279173778e-02  8.7607679630935104e-02  9.1287808654715419e-02  9.4951696324618973e-0