<?xml version="1.0"?>
<VTKFile type="UnstructuredGrid"  version="0.1"  >
<UnstructuredGrid>
<Piece  NumberOfPoints="10001" NumberOfCells="10000">
<Points>
<DataArray  type="Float64"  NumberOfComponents="3"  format="ascii">0 0 0  0.0001 0 0  0.0002 0 0  0.0003 0 0  0.0004 0 0  0.0005 0 0  0.0005999999999999999 0 0  0.0007 0 0  0.0008 0 0  0.0009 0 0  0.001 0 0  0.0011 0 0  0.0012 0 0  0.0013 0 0  0.0014 0 0  0.0015 0 0  0.0016 0 0  0.0017 0 0  0.0018 0 0  0.0019 0 0  0.002 0 0  0.0021 0 0  0.0022 0 0  0.0023 0 0  0.0024 0 0  0.0025 0 0  0.0026 0 0  0.0027 0 0  0.0028 0 0  0.0029 0 0  0.003 0 0  0.0031 0 0  0.0032 0 0  0.0033 0 0  0.0034 0 0  0.0035 0 0  0.0036 0 0  0.0037 0 0  0.0038 0 0  0.0039 0 0  0.004 0 0  0.0041 0 0  0.0042 0 0  0.0043 0 0  0.0044 0 0  0.0045 0 0  0.0046 0 0  0.0047 0 0  0.0048 0 0  0.0049 0 0  0.005 0 0  0.0051 0 0  0.0052 0 0  0.0053 0 0  0.0054 0 0  0.0055 0 0  0.0056 0 0  0.0057 0 0  0.0058 0 0  0.0059 0 0  0.006 0 0  0.0061 0 0  0.0062 0 0  0.0063 0 0  0.0064 0 0  0.0065 0 0  0.0066 0 0  0.0067 0 0  0.0068 0 0  0.0069 0 0  0.007 0 0  0.0071 0 0  0.0072 0 0  0.0073 0 0  0.0074 0 0  0.0075 0 0  0.0076 0 0  0.0077 0 0  0.0078 0 0  0.007900000000000001 0 0  0.008 0 0  0.0081 0 0  0.008200000000000001 0 0  0.0083 0 0  0.008399999999999999 0 0  0.008500000000000001 0 0  0.0086 0 0  0.008699999999999999 0 0  0.008800000000000001 0 0  0.0089 0 0  0.008999999999999999 0 0  0.0091 0 0  0.0092 0 0  0.009299999999999999 0 0  0.0094 0 0  0.0095 0 0  0.009599999999999999 0 0  0.0097 0 0  0.0098 0 0  0.009900000000000001 0 0  0.01 0 0  0.0101 0 0  0.0102 0 0  0.0103 0 0  0.0104 0 0  0.0105 0 0  0.0106 0 0  0.0107 0 0  0.0108 0 0  0.0109 0 0  0.011 0 0  0.0111 0 0  0.0112 0 0  0.0113 0 0  0.0114 0 0  0.0115 0 0  0.0116 0 0  0.0117 0 0  0.0118 0 0  0.0119 0 0  0.012 0 0  0.0121 0 0  0.0122 0 0  0.0123 0 0  0.0124 0 0  0.0125 0 0  0.0126 0 0  0.0127 0 0  0.0128 0 0  0.0129 0 0  0.013 0 0  0.0131 0 0  0.0132 0 0  0.0133 0 0  0.0134 0 0  0.0135 0 0  0.0136 0 0  0.0137 0 0  0.0138 0 0  0.0139 0 0  0.014 0 0  0.0141 0 0  0.0142 0 0  0.0143 0 0  0.0144 0 0  0.0145 0 0  0.0146 0 0  0.0147 0 0  0.0148 0 0  0.0149 0 0  0.015 0 0  0.0151 0 0  0.0152 0 0  0.0153 0 0  0.0154 0 0  0.0155 0 0  0.0156 0 0  0.0157 0 0  0.0158 0 0  0.0159 0 0  0.016 0 0  0.0161 0 0  0.0162 0 0  0.0163 0 0  0.0164 0 0  0.0165 0 0  0.0166 0 0  0.0167 0 0  0.0168 0 0  0.0169 0 0  0.017 0 0  0.0171 0 0  0.0172 0 0  0.0173 0 0  0.0174 0 0  0.0175 0 0  0.0176 0 0  0.0177 0 0  0.0178 0 0  0.0179 0 0  0.018 0 0  0.0181 0 0  0.0182 0 0  0.0183 0 0  0.0184 0 0  0.0185 0 0  0.0186 0 0  0.0187 0 0  0.0188 0 0  0.0189 0 0  0.019 0 0  0.0191 0 0  0.0192 0 0  0.0193 0 0  0.0194 0 0  0.0195 0 0  0.0196 0 0  0.0197 0 0  0.0198 0 0  0.0199 0 0  0.02 0 0  0.0201 0 0  0.0202 0 0  0.0203 0 0  0.0204 0 0  0.0205 0 0  0.0206 0 0  0.0207 0 0  0.0208 0 0  0.0209 0 0  0.021 0 0  0.0211 0 0  0.0212 0 0  0.0213 0 0  0.0214 0 0  0.0215 0 0  0.0216 0 0  0.0217 0 0  0.0218 0 0  0.0219 0 0  0.022 0 0  0.0221 0 0  0.0222 0 0  0.0223 0 0  0.0224 0 0  0.0225 0 0  0.0226 0 0  0.0227 0 0  0.0228 0 0  0.0229 0 0  0.023 0 0  0.0231 0 0  0.0232 0 0  0.0233 0 0  0.0234 0 0  0.0235 0 0  0.0236 0 0  0.0237 0 0  0.0238 0 0  0.0239 0 0  0.024 0 0  0.0241 0 0  0.0242 0 0  0.0243 0 0  0.0244 0 0  0.0245 0 0  0.0246 0 0  0.0247 0 0  0.0248 0 0  0.0249 0 0  0.025 0 0  0.0251 0 0  0.0252 0 0  0.0253 0 0  0.0254 0 0  0.0255 0 0  0.0256 0 0  0.0257 0 0  0.0258 0 0  0.0259 0 0  0.026 0 0  0.0261 0 0  0.0262 0 0  0.0263 0 0  0.0264 0 0  0.0265 0 0  0.0266 0 0  0.0267 0 0  0.0268 0 0  0.0269 0 0  0.027 0 0  0.0271 0 0  0.0272 0 0  0.0273 0 0  0.0274 0 0  0.0275 0 0  0.0276 0 0  0.0277 0 0  0.0278 0 0  0.0279 0 0  0.028 0 0  0.0281 0 0  0.0282 0 0  0.0283 0 0  0.0284 0 0  0.0285 0 0  0.0286 0 0  0.0287 0 0  0.0288 0 0  0.0289 0 0  0.029 0 0  0.0291 0 0  0.0292 0 0  0.0293 0 0  0.0294 0 0  0.0295 0 0  0.0296 0 0  0.0297 0 0  0.0298 0 0  0.0299 0 0  0.03 0 0  0.0301 0 0  0.0302 0 0  0.0303 0 0  0.0304 0 0  0.0305 0 0  0.0306 0 0  0.0307 0 0  0.0308 0 0  0.0309 0 0  0.031 0 0  0.0311 0 0  0.0312 0 0  0.0313 0 0  0.0314 0 0  0.0315 0 0  0.0316 0 0  0.0317 0 0  0.0318 0 0  0.0319 0 0  0.032 0 0  0.0321 0 0  0.0322 0 0  0.0323 0 0  0.0324 0 0  0.0325 0 0  0.0326 0 0  0.0327 0 0  0.0328 0 0  0.0329 0 0  0.033 0 0  0.0331 0 0  0.0332 0 0  0.0333 0 0  0.0334 0 0  0.0335 0 0  0.0336 0 0  0.0337 0 0  0.0338 0 0  0.0339 0 0  0.034 0 0  0.0341 0 0  0.0342 0 0  0.0343 0 0  0.0344 0 0  0.0345 0 0  0.0346 0 0  0.0347 0 0  0.0348 0 0  0.0349 0 0  0.035 0 0  0.0351 0 0  0.0352 0 0  0.0353 0 0  0.0354 0 0  0.0355 0 0  0.0356 0 0  0.0357 0 0  0.0358 0 0  0.0359 0 0  0.036 0 0  0.0361 0 0  0.0362 0 0  0.0363 0 0  0.0364 0 0  0.0365 0 0  0.0366 0 0  0.0367 0 0  0.0368 0 0  0.0369 0 0  0.037 0 0  0.0371 0 0  0.0372 0 0  0.0373 0 0  0.0374 0 0  0.0375 0 0  0.0376 0 0  0.0377 0 0  0.0378 0 0  0.0379 0 0  0.038 0 0  0.0381 0 0  0.0382 0 0  0.0383 0 0  0.0384 0 0  0.0385 0 0  0.0386 0 0  0.0387 0 0  0.0388 0 0  0.0389 0 0  0.039 0 0  0.0391 0 0  0.0392 0 0  0.0393 0 0  0.0394 0 0  0.0395 0 0  0.0396 0 0  0.0397 0 0  0.0398 0 0  0.0399 0 0  0.04 0 0  0.0401 0 0  0.0402 0 0  0.0403 0 0  0.0404 0 0  0.0405 0 0  0.0406 0 0  0.0407 0 0  0.0408 0 0  0.0409 0 0  0.041 0 0  0.0411 0 0  0.0412 0 0  0.0413 0 0  0.0414 0 0  0.0415 0 0  0.0416 0 0  0.0417 0 0  0.0418 0 0  0.0419 0 0  0.042 0 0  0.0421 0 0  0.0422 0 0  0.0423 0 0  0.0424 0 0  0.0425 0 0  0.0426 0 0  0.0427 0 0  0.0428 0 0  0.0429 0 0  0.043 0 0  0.0431 0 0  0.0432 0 0  0.0433 0 0  0.0434 0 0  0.0435 0 0  0.0436 0 0  0.0437 0 0  0.0438 0 0  0.0439 0 0  0.044 0 0  0.0441 0 0  0.0442 0 0  0.0443 0 0  0.0444 0 0  0.0445 0 0  0.0446 0 0  0.0447 0 0  0.0448 0 0  0.0449 0 0  0.045 0 0  0.0451 0 0  0.0452 0 0  0.0453 0 0  0.0454 0 0  0.0455 0 0  0.0456 0 0  0.0457 0 0  0.0458 0 0  0.0459 0 0  0.046 0 0  0.0461 0 0  0.0462 0 0  0.0463 0 0  0.0464 0 0  0.0465 0 0  0.0466 0 0  0.0467 0 0  0.0468 0 0  0.0469 0 0  0.047 0 0  0.0471 0 0  0.0472 0 0  0.0473 0 0  0.0474 0 0  0.0475 0 0  0.0476 0 0  0.0477 0 0  0.0478 0 0  0.0479 0 0  0.048 0 0  0.0481 0 0  0.0482 0 0  0.0483 0 0  0.0484 0 0  0.0485 0 0  0.0486 0 0  0.0487 0 0  0.0488 0 0  0.0489 0 0  0.049 0 0  0.0491 0 0  0.0492 0 0  0.0493 0 0  0.0494 0 0  0.0495 0 0  0.0496 0 0  0.0497 0 0  0.0498 0 0  0.0499 0 0  0.05 0 0  0.0501 0 0  0.0502 0 0  0.0503 0 0  0.0504 0 0  0.0505 0 0  0.0506 0 0  0.0507 0 0  0.0508 0 0  0.0509 0 0  0.051 0 0  0.0511 0 0  0.0512 0 0  0.0513 0 0  0.0514 0 0  0.0515 0 0  0.0516 0 0  0.0517 0 0  0.0518 0 0  0.0519 0 0  0.052 0 0  0.0521 0 0  0.0522 0 0  0.0523 0 0  0.0524 0 0  0.0525 0 0  0.0526 0 0  0.0527 0 0  0.0528 0 0  0.0529 0 0  0.053 0 0  0.0531 0 0  0.0532 0 0  0.0533 0 0  0.0534 0 0  0.0535 0 0  0.0536 0 0  0.0537 0 0  0.0538 0 0  0.0539 0 0  0.054 0 0  0.0541 0 0  0.0542 0 0  0.0543 0 0  0.0544 0 0  0.0545 0 0  0.0546 0 0  0.0547 0 0  0.0548 0 0  0.0549 0 0  0.055 0 0  0.0551 0 0  0.0552 0 0  0.0553 0 0  0.0554 0 0  0.0555 0 0  0.0556 0 0  0.0557 0 0  0.0558 0 0  0.0559 0 0  0.056 0 0  0.0561 0 0  0.0562 0 0  0.0563 0 0  0.0564 0 0  0.0565 0 0  0.0566 0 0  0.0567 0 0  0.0568 0 0  0.0569 0 0  0.057 0 0  0.0571 0 0  0.0572 0 0  0.0573 0 0  0.0574 0 0  0.0575 0 0  0.0576 0 0  0.0577 0 0  0.0578 0 0  0.0579 0 0  0.058 0 0  0.0581 0 0  0.0582 0 0  0.0583 0 0  0.0584 0 0  0.0585 0 0  0.0586 0 0  0.0587 0 0  0.0588 0 0  0.0589 0 0  0.059 0 0  0.0591 0 0  0.0592 0 0  0.0593 0 0  0.0594 0 0  0.0595 0 0  0.0596 0 0  0.0597 0 0  0.0598 0 0  0.0599 0 0  0.06 0 0  0.0601 0 0  0.0602 0 0  0.0603 0 0  0.0604 0 0  0.0605 0 0  0.0606 0 0  0.0607 0 0  0.0608 0 0  0.0609 0 0  0.061 0 0  0.0611 0 0  0.0612 0 0  0.0613 0 0  0.0614 0 0  0.0615 0 0  0.0616 0 0  0.0617 0 0  0.0618 0 0  0.0619 0 0  0.062 0 0  0.0621 0 0  0.0622 0 0  0.0623 0 0  0.0624 0 0  0.0625 0 0  0.0626 0 0  0.06270000000000001 0 0  0.06279999999999999 0 0  0.0629 0 0  0.063 0 0  0.0631 0 0  0.06320000000000001 0 0  0.0633 0 0  0.0634 0 0  0.0635 0 0  0.0636 0 0  0.06370000000000001 0 0  0.0638 0 0  0.0639 0 0  0.064 0 0  0.0641 0 0  0.06419999999999999 0 0  0.0643 0 0  0.0644 0 0  0.0645 0 0  0.0646 0 0  0.06469999999999999 0 0  0.0648 0 0  0.0649 0 0  0.065 0 0  0.06510000000000001 0 0  0.06519999999999999 0 0  0.0653 0 0  0.0654 0 0  0.0655 0 0  0.06560000000000001 0 0  0.06569999999999999 0 0  0.0658 0 0  0.0659 0 0  0.066 0 0  0.06610000000000001 0 0  0.06619999999999999 0 0  0.0663 0 0  0.0664 0 0  0.0665 0 0  0.06660000000000001 0 0  0.0667 0 0  0.0668 0 0  0.0669 0 0  0.067 0 0  0.06710000000000001 0 0  0.0672 0 0  0.0673 0 0  0.0674 0 0  0.0675 0 0  0.06759999999999999 0 0  0.0677 0 0  0.0678 0 0  0.0679 0 0  0.068 0 0  0.06809999999999999 0 0  0.0682 0 0  0.0683 0 0  0.0684 0 0  0.06850000000000001 0 0  0.06859999999999999 0 0  0.0687 0 0  0.0688 0 0  0.0689 0 0  0.06900000000000001 0 0  0.06909999999999999 0 0  0.0692 0 0  0.0693 0 0  0.0694 0 0  0.06950000000000001 0 0  0.0696 0 0  0.0697 0 0  0.0698 0 0  0.0699 0 0  0.07000000000000001 0 0  0.0701 0 0  0.0702 0 0  0.0703 0 0  0.0704 0 0  0.07049999999999999 0 0  0.0706 0 0  0.0707 0 0  0.0708 0 0  0.0709 0 0  0.07099999999999999 0 0  0.0711 0 0  0.0712 0 0  0.0713 0 0  0.07140000000000001 0 0  0.07149999999999999 0 0  0.0716 0 0  0.0717 0 0  0.0718 0 0  0.07190000000000001 0 0  0.07199999999999999 0 0  0.0721 0 0  0.0722 0 0  0.0723 0 0  0.07240000000000001 0 0  0.0725 0 0  0.0726 0 0  0.0727 0 0  0.0728 0 0  0.07290000000000001 0 0  0.073 0 0  0.0731 0 0  0.0732 0 0  0.0733 0 0  0.07340000000000001 0 0  0.0735 0 0  0.0736 0 0  0.0737 0 0  0.0738 0 0  0.07389999999999999 0 0  0.074 0 0  0.0741 0 0  0.0742 0 0  0.0743 0 0  0.07439999999999999 0 0  0.0745 0 0  0.0746 0 0  0.0747 0 0  0.07480000000000001 0 0  0.07489999999999999 0 0  0.075 0 0  0.0751 0 0  0.0752 0 0  0.07530000000000001 0 0  0.07539999999999999 0 0  0.0755 0 0  0.0756 0 0  0.0757 0 0  0.07580000000000001 0 0  0.0759 0 0  0.076 0 0  0.0761 0 0  0.0762 0 0  0.07630000000000001 0 0  0.0764 0 0  0.0765 0 0  0.0766
[...]
<PointData  Scalars="f_18"> 
<DataArray  type="Float64"  Name="f_18"  format="ascii">0.0000000000000000e+00  9.9776970503775189e-09  1.9955393115995820e-08  2.9933087212095778e-08  3.9910778353918477e-08  4.9888465556705287e-08  5.9866147835697944e-08  6.9843824206138726e-08  7.9821493683270442e-08  8.9799155282336584e-08  9.9776808018581467e-08  1.0975445090725025e-07  1.1973208296358898e-07  1.2970970320284491e-07  1.3968731064026642e-07  1.4966490429110313e-07  1.5964248317060599e-07  1.6962004629402746e-07  1.7959759267662153e-07  1.8957512133364391e-07  1.9955263128035202e-07  2.0953012153200508e-07  2.1950759110386435e-07  2.2948503901119299e-07  2.3946246426925641e-07  2.4943986589332227e-07  2.5941724289866048e-07  2.6939459430054332e-07  2.7937191911424571e-07  2.8934921635504529e-07  2.9932648503822228e-07  3.0930372417905965e-07  3.1928093279284352e-07  3.2925810989486262e-07  3.3923525450040928e-07  3.4921236562477880e-07  3.5918944228326975e-07  3.6916648349118421e-07  3.7914348826382746e-07  3.8912045561650884e-07  3.9909738456454117e-07  4.0907427412324069e-07  4.1905112330792817e-07  4.2902793113392817e-07  4.3900469661656909e-07  4.4898141877118363e-07  4.5895809661310887e-07  4.6893472915768604e-07  4.7891131542026095e-07  4.8888785441618432e-07  4.9886434516081095e-07  5.0884078666950060e-07  5.1881717795761814e-07  5.2879351804053329e-07  5.3876980593362066e-07  5.4874604065226013e-07  5.5872222121183720e-07  5.6869834662774182e-07  5.7867441591536988e-07  5.8865042809012318e-07  5.9862638216740840e-07  6.0860227716263836e-07  6.1857811209123191e-07  6.2855388596861342e-07  6.3852959781021360e-07  6.4850524663146919e-07  6.5848083144782320e-07  6.6845635127472475e-07  6.7843180512762923e-07  6.8840719202199934e-07  6.9838251097330368e-07  7.0835776099701755e-07  7.1833294110862322e-07  7.2830805032361038e-07  7.3828308765747475e-07  7.4825805212571968e-07  7.5823294274385582e-07  7.6820775852740103e-07  7.7818249849188024e-07  7.8815716165282614e-07  7.9813174702577870e-07  8.0810625362628606e-07  8.1808068046990419e-07  8.2805502657219572e-07  8.3802929094873292e-07  8.4800347261509539e-07  8.5797757058687020e-07  8.6795158387965389e-07  8.7792551150905081e-07  8.8789935249067357e-07  8.9787310584014357e-07  9.0784677057309101e-07  9.1782034570515432e-07  9.2779383025198129e-07  9.3776722322922855e-07  9.4774052365256147e-07  9.5771373053765479e-07  9.6768684290019272e-07  9.7765985975586822e-07  9.8763278012038433e-07  9.9760560300945276e-07  1.0075783274387956e-06  1.0175509524241447e-06  1.0275234769812412e-06  1.0374959001258365e-06  1.0474682208736921e-06  1.0574404382405783e-06  1.0674125512422777e-06  1.0773845588945821e-06  1.0873564602132937e-06  1.0973282542142253e-06  1.1072999399132005e-06  1.1172715163260529e-06  1.1272429824686276e-06  1.1372143373567803e-06  1.1471855800063777e-06  1.1571567094332979e-06  1.1671277246534298e-06  1.1770986246826730e-06  1.1870694085369399e-06  1.1970400752321528e-06  1.2070106237842470e-06  1.2169810532091684e-06  1.2269513625228752e-06  1.2369215507413378e-06  1.2468916168805377e-06  1.2568615599564687e-06  1.2668313789851370e-06  1.2768010729825608e-06  1.2867706409647707e-06  1.2967400819478102e-06  1.3067093949477347e-06  1.3166785789806122e-06  1.3266476330625240e-06  1.3366165562095642e-06  1.3465853474378390e-06  1.3565540057634683e-06  1.3665225302025848e-06  1.3764909197713345e-06  1.3864591734858774e-06  1.3964272903623861e-06  1.4063952694170467e-06  1.4163631096660593e-06  1.4263308101256372e-06  1.4362983698120075e-06  1.4462657877414121e-06  1.4562330629301061e-06  1.4662001943943590e-06  1.4761671811504542e-06  1.4861340222146900e-06  1.4961007166033782e-06  1.5060672633328461e-06  1.5160336614194340e-06  1.5259999098794985e-06  1.5359660077294102e-06  1.5459319539855540e-06  1.5558977476643315e-06  1.5658633877821578e-06  1.5758288733554644e-06  1.5857942034006965e-06  1.5957593769343155e-06  1.6057243929727986e-06  1.6156892505326378e-06  1.6256539486303411e-06  1.6356184862824328e-06  1.6455828625054517e-06  1.6555470763159534e-06  1.6655111267305097e-06  1.6754750127657081e-06  1.6854387334381523e-06  1.6954022877644632e-06  1.7053656747612764e-06  1.7153288934452454e-06  1.7252919428330404e-06  1.7352548219413478e-06  1.7452175297868709e-06  1.7551800653863296e-06  1.7651424277564609e-06  1.7751046159140191e-06  1.7850666288757761e-06  1.7950284656585200e-06  1.8049901252790575e-06  1.8149516067542121e-06  1.8249129091008247e-06  1.8348740313357543e-06  1.8448349724758768e-06  1.8547957315380875e-06  1.8647563075392990e-06  1.8747166994964415e-06  1.8846769064264639e-06  1.8946369273463328e-06  1.9045967612730340e-06  1.9145564072235712e-06  1.9245158642149667e-06  1.9344751312642620e-06  1.9444342073885163e-06  1.9543930916048085e-06  1.9643517829302366e-06  1.9743102803819165e-06  1.9842685829769834e-06  1.9942266897325925e-06  2.0041845996659195e-06  2.0141423117941571e-06  2.0240998251345181e-06  2.0340571387042354e-06  2.0440142515205623e-06  2.0539711626007699e-06  2.0639278709621514e-06  2.0738843756220190e-06  2.0838406755977047e-06  2.0937967699065622e-06  2.1037526575659639e-06  2.1137083375933024e-06  2.1236638090059915e-06  2.1336190708214662e-06  2.1435741220571820e-06  2.1535289617306135e-06  2.1634835888592585e-06  2.1734380024606333e-06  2.1833922015522779e-06  2.1933461851517514e-06  2.2032999522766363e-06  2.2132535019445347e-06  2.2232068331730703e-06  2.2331599449798880e-06  2.2431128363826562e-06  2.2530655063990632e-06  2.2630179540468205e-06  2.2729701783436600e-06  2.2829221783073383e-06  2.2928739529556303e-06  2.3028255013063361e-06  2.3127768223772762e-06  2.3227279151862960e-06  2.3326787787512619e-06  2.3426294120900623e-06  2.3525798142206101e-06  2.3625299841608386e-06  2.3724799209287066e-06  2.3824296235421937e-06  2.3923790910193041e-06  2.4023283223780646e-06  2.4122773166365250e-06  2.4222260728127599e-06  2.4321745899248658e-06  2.4421228669909638e-06  2.4520709030291979e-06  2.4620186970577370e-06  2.4719662480947726e-06  2.4819135551585214e-06  2.4918606172672241e-06  2.5018074334391431e-06  2.5117540026925672e-06  2.5217003240458099e-06  2.5316463965172095e-06  2.5415922191251269e-06  2.5515377908879494e-06  2.5614831108240884e-06  2.5714281779519796e-06  2.5813729912900842e-06  2.5913175498568887e-06  2.6012618526709065e-06  2.6112058987506720e-06  2.6211496871147481e-06  2.6310932167817213e-06  2.6410364867702056e-06  2.6509794960988384e-06  2.6609222437862860e-06  2.6708647288512364e-06  2.6808069503124072e-06  2.6907489071885394e-06  2.7006905984984016e-06  2.7106320232607889e-06  2.7205731804945211e-06  2.7305140692184452e-06  2.7404546884514358e-06  2.7503950372123923e-06  2.7603351145202415e-06  2.7702749193939378e-06  2.7802144508524614e-06  2.7901537079148192e-06  2.8000926896000468e-06  2.8100313949272050e-06  2.8199698229153840e-06  2.8299079725836996e-06  2.8398458429512976e-06  2.8497834330373475e-06  2.8597207418610489e-06  2.8696577684416294e-06  2.8795945117983434e-06  2.8895309709504747e-06  2.8994671449173326e-06  2.9094030327182564e-06  2.9193386333726132e-06  2.9292739458997983e-06  2.9392089693192361e-06  2.9491437026503788e-06  2.9590781449127077e-06  2.9690122951257324e-06  2.9789461523089914e-06  2.9888797154820520e-06  2.9988129836645115e-06  3.0087459558759964e-06  3.0186786311361602e-06  3.0286110084646884e-06  3.0385430868812938e-06  3.0484748654057194e-06  3.0584063430577393e-06  3.0683375188571548e-06  3.0782683918237984e-06  3.0881989609775327e-06  3.0981292253382500e-06  3.1080591839258708e-06  3.1179888357603492e-06  3.1279181798616664e-06  3.1378472152498371e-06  3.1477759409449044e-06  3.1577043559669411e-06  3.1676324593360536e-06  3.1775602500723767e-06  3.1874877271960780e-06  3.1974148897273533e-06  3.2073417366864317e-06  3.2172682670935729e-06  3.2271944799690664e-06  3.2371203743332358e-06  3.2470459492064322e-06  3.2569712036090431e-06  3.2668961365614854e-06  3.2768207470842053e-06  3.2867450341976843e-06  3.2966689969224336e-06  3.3065926342789987e-06  3.3165159452879557e-06  3.3264389289699118e-06  3.3363615843455089e-06  3.3462839104354193e-06  3.3562059062603497e-06  3.3661275708410378e-06  3.3760489031982548e-06  3.3859699023528046e-06  3.3958905673255225e-06  3.4058108971372796e-06  3.4157308908089768e-06  3.4256505473615513e-06  3.4355698658159736e-06  3.4454888451932442e-06  3.4554074845143997e-06  3.4653257828005082e-06  3.4752437390726756e-06  3.4851613523520388e-06  3.4950786216597663e-06  3.5049955460170640e-06  3.5149121244451695e-06  3.5248283559653581e-06  3.5347442395989339e-06  3.5446597743672414e-06  3.5545749592916565e-06  3.5644897933935883e-06  3.5744042756944827e-06  3.5843184052158184e-06  3.5942321809791113e-06  3.6041456020059106e-06  3.6140586673177991e-06  3.6239713759363991e-06  3.6338837268833636e-06  3.6437957191803841e-06  3.6537073518491860e-06  3.6636186239115297e-06  3.6735295343892132e-06  3.6834400823040667e-06  3.6933502666779595e-06  3.7032600865327952e-06  3.7131695408905153e-06  3.7230786287730950e-06  3.7329873492025453e-06  3.7428957012009172e-06  3.7528036837902930e-06  3.7627112959927950e-06  3.7726185368305814e-06  3.7825254053258467e-06  3.7924319005008235e-06  3.8023380213777773e-06  3.8122437669790145e-06  3.8221491363268765e-06  3.8320541284437442e-06  3.8419587423520331e-06  3.8518629770741952e-06  3.8617668316327248e-06  3.8716703050501485e-06  3.8815733963490342e-06  3.8914761045519856e-06  3.9013784286816435e-06  3.9112803677606896e-06  3.9211819208118390e-06  3.9310830868578498e-06  3.9409838649215159e-06  3.9508842540256689e-06  3.9607842531931792e-06  3.9706838614469562e-06  3.9805830778099481e-06  3.9904819013051407e-06  4.0003803309555610e-06  4.0102783657842726e-06  4.0201760048143763e-06  4.0300732470690177e-06  4.0399700915713766e-06  4.0498665373446738e-06  4.0597625834121696e-06  4.0696582287971612e-06  4.0795534725229908e-06  4.0894483136130363e-06  4.0993427510907143e-06  4.1092367839794857e-06  4.1191304113028469e-06  4.1290236320843365e-06  4.1389164453475322e-06  4.1488088501160525e-06  4.1587008454135563e-06  4.1685924302637433e-06  4.1784836036903537e-06  4.1883743647171652e-06  4.1982647123680011e-06  4.2081546456667220e-06  4.2180441636372317e-06  4.2279332653034746e-06  4.2378219496894334e-06  4.2477102158191354e-06  4.2575980627166488e-06  4.2674854894060807e-06  4.2773724949115788e-06  4.2872590782573392e-06  4.2971452384675934e-06  4.3070309745666180e-06  4.3169162855787283e-06  4.3268011705282830e-06  4.3366856284396832e-06  4.3465696583373739e-06  4.3564532592458374e-06  4.3663364301896043e-06  4.3762191701932408e-06  4.3861014782813631e-06  4.3959833534786261e-06  4.4058647948097267e-06  4.4157458012994062e-06  4.4256263719724468e-06  4.4355065058536791e-06  4.4453862019679681e-06  4.4552654593402299e-06  4.4651442769954220e-06  4.4750226539585417e-06  4.4849005892546329e-06  4.4947780819087835e-06  4.5046551309461230e-06  4.5145317353918274e-06  4.5244078942711118e-06  4.5342836066092411e-06  4.5441588714315193e-06  4.5540336877632994e-06  4.5639080546299751e-06  4.5737819710569859e-06  4.5836554360698162e-06  4.5935284486939902e-06  4.6034010079550836e-06  4.6132731128787139e-06  4.6231447624905416e-06  4.6330159558162762e-06  4.6428866918816683e-06  4.6527569697125155e-06  4.6626267883346621e-06  4.6724961467739958e-06  4.6823650440564515e-06  4.6922334792080039e-06  4.7021014512546805e-06  4.7119689592225483e-06  4.7218360021377261e-06  4.7317025790263758e-06  4.7415686889147045e-06  4.7514343308289655e-06  4.7612995037954597e-06  4.7711642068405329e-06  4.7810284389905776e-06  4.7908921992720351e-06  4.8007554867113920e-06  4.8106183003351769e-06  4.8204806391699728e-06  4.8303425022424034e-06  4.8402038885791431e-06  4.8500647972069120e-06  4.8599252271524761e-06  4.8697851774426512e-06  4.8796446471042991e-06  4.8895036351643296e-06  4.8993621406496992e-06  4.9092201625874119e-06  4.9190777000045215e-06  4.9289347519281269e-06  4.9387913173853769e-06  4.9486473954034660e-06  4.9585029850096386e-06  4.9683580852311901e-06  4.9782126950954573e-06  4.9880668136298312e-06  4.9979204398617478e-06  5.0077735728186929e-06  5.0176262115282050e-06  5.0274783550178632e-06  5.0373300023153032e-06  5.0471811524482041e-06  5.0570318044442982e-06  5.0668819573313638e-06  5.0767316101372296e-06  5.0865807618897756e-06  5.0964294116169264e-06  5.1062775583466625e-06  5.1161252011070085e-06  5.1259723389260424e-06  5.1358189708318914e-06  5.1456650958527291e-06  5.1555107130167842e-06  5.1653558213523321e-06  5.1752004198876998e-06  5.1850445076512651e-06  5.1948880836714541e-06  5.2047311469767463e-06  5.2145736965956703e-06  5.2244157315568038e-06  5.2342572508887770e-06  5.2440982536202719e-06  5.2539387387800211e-06  5.2637787053968066e-06  5.2736181524994627e-06  5.2834570791168746e-06  5.2932954842779783e-06  5.3031333670117658e-06  5.3129707263472730e-06  5.3228075613135952e-06  5.3326438709398725e-06  5.3424796542553027e-06  5.3523149102891310e-06  5.3621496380706558e-06  5.3719838366292301e-06  5.3818175049942556e-06  5.3916506421951918e-06  5.4014832472615424e-06  5.4113153192228725e-06  5.4211468571087943e-06  5.4309778599489713e-06  5.4408083267731238e-06  5.4506382566110223e-06  5.4604676484924938e-06  5.4702965014474162e-06  5.4801248145057200e-06  5.4899525866973890e-06  5.4997798170524612e-06  5.5096065046010271e-06  5.5194326483732331e-06  5.5292582473992799e-06  5.5390833007094172e-06  5.5489078073339499e-06  5.5587317663032404e-06  5.5685551766477011e-06  5.5783780373978002e-06  5.5882003475840621e-06  5.5980221062370616e-06  5.6078433123874323e-06  5.6176639650658569e-06  5.6274840633030779e-06  5.6373036061298899e-06  5.6471225925771423e-06  5.6569410216757396e-06  5.6667588924566432e-06  5.6765762039508684e-06  5.6863929551894815e-06  5.6962091452036126e-06  5.7060247730244412e-06  5.7158398376832023e-06  5.7256543382111901e-06  5.7354682736397504e-06  5.7452816430002874e-06  5.7550944453242631e-06  5.7649066796431884e-06  5.7747183449886361e-06  5.7845294403922342e-06  5.7943399648856656e-06  5.8041499175006733e-06  5.8139592972690496e-06  5.8237681032226511e-06  5.8335763343933835e-06  5.8433839898132144e-06  5.8531910685141663e-06  5.8629975695283228e-06  5.8728034918878209e-06  5.8826088346248518e-06  5.8924135967716677e-06  5.9022177773605773e-06  5.9120213754239481e-06  5.9218243899942041e-06  5.9316268201038263e-06  5.9414286647853522e-06  5.9512299230713796e-06  5.9610305939945620e-06  5.9708306765876126e-06  5.9806301698833025e-06  5.9904290729144617e-06  6.0002273847139751e-06  6.0100251043147893e-06  6.0198222307499070e-06  6.0296187630523909e-06  6.0394147002553640e-06  6.0492100413920025e-06  6.0590047854955480e-06  6.0687989315992968e-06  6.0785924787366050e-06  6.0883854259408910e-06  6.0981777722456249e-06  6.1079695166843431e-06  6.1177606582906394e-06  6.1275511960981686e-06  6.1373411291406398e-06  6.1471304564518289e-06  6.1569191770655653e-06  6.1667072900157427e-06  6.1764947943363123e-06  6.1862816890612874e-06  6.1960679732247395e-06  6.2058536458608019e-06  6.2156387060036675e-06  6.2254231526875865e-06  6.2352069849468778e-06  6.2449902018159128e-06  6.2547728023291282e-06  6.2645547855210183e-06  6.2743361504261400e-06  6.2841168960791129e-06  6.2938970215146167e-06  6.3036765257673904e-06  6.3134554078722359e-06  6.3232336668640158e-06  6.3330113017776563e-06  6.3427883116481413e-06  6.3525646955105206e-06  6.3623404523999002e-06  6.3721155813514560e-06  6.3818900814004185e-06  6.3916639515820848e-06  6.4014371909318089e-06  6.4112097984850126e-06  6.4209817732771795e-06  6.4307531143438559e-06  6.4405238207206463e-06  6.4502938914432209e-06  6.4600633255473129e-06  6.4698321220687187e-06  6.4796002800432952e-06  6.4893677985069640e-06  6.4991346764957101e-06  6.5089009130455813e-06  6.5186665071926912e-06  6.5284314579732130e-06  6.5381957644233833e-06  6.5479594255795039e-06  6.5577224404779392e-06  6.5674848081551224e-06  6.5772465276475442e-06  6.5870075979917597e-06  6.5967680182243900e-06  6.6065277873821197e-06  6.6162869045017014e-06  6.6260453686199460e-06  6.6358031787737319e-06  6.6455603340000032e-06  6.6553168333357656e-06  6.6650726758180949e-06  6.6748278604841258e-06  6.6845823863710586e-06  6.6943362525161618e-06  6.7040894579567670e-06  6.7138420017302722e-06  6.7235938828741388e-06  6.7333451004258950e-06  6.7430956534231337e-06  6.7528455409035152e-06  6.7625947619047652e-06  6.7723433154646730e-06  6.7820912006210955e-06  6.7918384164119531e-06  6.8015849618752377e-06  6.8113308360490000e-06  6.8210760379713630e-06  6.8308205666805124e-06  6.8405644212147023e-06  6.8503076006122548e-06  6.8600501039115554e-06  6.8697919301510565e-06  6.8795330783692783e-06  6.8892735476048062e-06  6.8990133368962985e-06  6.9087524452824745e-06  6.9184908718021228e-06  6.9282286154941016e-06  6.9379656753973292e-06  6.9477020505508010e-06  6.9574377399935733e-06  6.9671727427647704e-06  6.9769070579035874e-06  6.9866406844492848e-06  6.9963736214411953e-06  7.0061058679187147e-06  7.0158374229213104e-06  7.0255682854885137e-06  7.0352984546599292e-06  7.0450279294752273e-06  7.0547567089741470e-06  7.0644847921964962e-06  7.0742121781821484e-06  7.0839388659710554e-06  7.0936648546032282e-06  7.1033901431187506e-06  7.1131147305577742e-06  7.1228386159605191e-06  7.1325617983672792e-06  7.1422842768184146e-06  7.1520060503543546e-06  7.1617271180155988e-06  7.1714474788427158e-06  7.1811671318763473e-06  7.1908860761571991e-06  7.2006043107260520e-06  7.2103218346237513e-06  7.2200386468912152e-06  7.2297547465694380e-06  7.2394701326994760e-06  7.2491848043224582e-06  7.2588987604795848e-06  7.2686120002121289e-06  7.2783245225614338e-06  7.2880363265689099e-06  7.2977474112760410e-06  7.3074577757243789e-06  7.3171674189555533e-06  7.3268763400112582e-06  7.3365845379332604e-06  7.3462920117634022e-06  7.3559987605435928e-06  7.3657047833158151e-06  7.3754100791221222e-06  7.3851146470046402e-06  7.3948184860055661e-06  7.4045215951671692e-06  7.4142239735317916e-06  7.4239256201418479e-06  7.4336265340398234e-06  7.4433267142682770e-06  7.4530261598698353e-06  7.4627248698872061e-06  7.4724228433631626e-06  7.4821200793405543e-06  7.4918165768622999e-06  7.5015123349713945e-06  7.5112073527109077e-06  7.5209016291239778e-06  7.5305951632538192e-06  7.5402879541437158e-06  7.5499800008370303e-06  7.5596713023771974e-06  7.5693618578077212e-06  7.5790516661721829e-06  7.5887407265142350e-06  7.5984290378776093e-06  7.6081165993061082e-06  7.6178034098436026e-06  7.6274894685340438e-06  7.6371747744214570e-06  7.6468593265499434e-06  7.6565431239636729e-06  7.6662261657068925e-06  7.6759084508239272e-06  7.6855899783591729e-06  7.6952707473571020e-06  7.7049507568622580e-06  7.7146300059192655e-06  7.7243084935728188e-06  7.7339862188676884e-06  7.7436631808487261e-06  7.7533393785608479e-06  7.7630148110490564e-06  7.7726894773584203e-06  7.7823633765340894e-06  7.7920365076212899e-06  7.8017088696653207e-06  7.8113804617115573e-06  7.8210512828054509e-06  7.8307213319925344e-06  7.8403906083184066e-06  7.8500591108287545e-06  7.8597268385693311e-06  7.8693937905859707e-06  7.8790599659245839e-06  7.8887253636311591e-06  7.8983899827517578e-06  7.9080538223325207e-06  7.9177168814196635e-06  7.9273791590594846e-06  7.9370406542983537e-06  7.9467013661827166e-06  7.9563612937590989e-06  7.9660204360741057e-06  7.9756787921744200e-06  7.9853363611067978e-06  7.9949931419180763e-06  8.0046491336551671e-06  8.0143043353650634e-06  8.0239587460948362e-06  8.0336123648916343e-06  8.0432651908026813e-06  8.0529172228752802e-06  8.0625684601568138e-06  8.0722189016947494e-06  8.0818685465366222e-06  8.0915173937300486e-06  8.1011654423227283e-06  8.1108126913624351e-06  8.1204591398970262e-06  8.1301047869744331e-06  8.1397496316426671e-06  8.1493936729498240e-06  8.1590369099440708e-06  8.1686793416736628e-06  8.1783209671869279e