<?xml version="1.0"?>
<VTKFile type="UnstructuredGrid"  version="0.1"  >
<UnstructuredGrid>
<Piece  NumberOfPoints="10001" NumberOfCells="10000">
<Points>
<DataArray  type="Float64"  NumberOfComponents="3"  format="ascii">0 0 0  0.0001 0 0  0.0002 0 0  0.0003 0 0  0.0004 0 0  0.0005 0 0  0.0005999999999999999 0 0  0.0007 0 0  0.0008 0 0  0.0009 0 0  0.001 0 0  0.0011 0 0  0.0012 0 0  0.0013 0 0  0.0014 0 0  0.0015 0 0  0.0016 0 0  0.0017 0 0  0.0018 0 0  0.0019 0 0  0.002 0 0  0.0021 0 0  0.0022 0 0  0.0023 0 0  0.0024 0 0  0.0025 0 0  0.0026 0 0  0.0027 0 0  0.0028 0 0  0.0029 0 0  0.003 0 0  0.0031 0 0  0.0032 0 0  0.0033 0 0  0.0034 0 0  0.0035 0 0  0.0036 0 0  0.0037 0 0  0.0038 0 0  0.0039 0 0  0.004 0 0  0.0041 0 0  0.0042 0 0  0.0043 0 0  0.0044 0 0  0.0045 0 0  0.0046 0 0  0.0047 0 0  0.0048 0 0  0.0049 0 0  0.005 0 0  0.0051 0 0  0.0052 0 0  0.0053 0 0  0.0054 0 0  0.0055 0 0  0.0056 0 0  0.0057 0 0  0.0058 0 0  0.0059 0 0  0.006 0 0  0.0061 0 0  0.0062 0 0  0.0063 0 0  0.0064 0 0  0.0065 0 0  0.0066 0 0  0.0067 0 0  0.0068 0 0  0.0069 0 0  0.007 0 0  0.0071 0 0  0.0072 0 0  0.0073 0 0  0.0074 0 0  0.0075 0 0  0.0076 0 0  0.0077 0 0  0.0078 0 0  0.007900000000000001 0 0  0.008 0 0  0.0081 0 0  0.008200000000000001 0 0  0.0083 0 0  0.008399999999999999 0 0  0.008500000000000001 0 0  0.0086 0 0  0.008699999999999999 0 0  0.008800000000000001 0 0  0.0089 0 0  0.008999999999999999 0 0  0.0091 0 0  0.0092 0 0  0.009299999999999999 0 0  0.0094 0 0  0.0095 0 0  0.009599999999999999 0 0  0.0097 0 0  0.0098 0 0  0.009900000000000001 0 0  0.01 0 0  0.0101 0 0  0.0102 0 0  0.0103 0 0  0.0104 0 0  0.0105 0 0  0.0106 0 0  0.0107 0 0  0.0108 0 0  0.0109 0 0  0.011 0 0  0.0111 0 0  0.0112 0 0  0.0113 0 0  0.0114 0 0  0.0115 0 0  0.0116 0 0  0.0117 0 0  0.0118 0 0  0.0119 0 0  0.012 0 0  0.0121 0 0  0.0122 0 0  0.0123 0 0  0.0124 0 0  0.0125 0 0  0.0126 0 0  0.0127 0 0  0.0128 0 0  0.0129 0 0  0.013 0 0  0.0131 0 0  0.0132 0 0  0.0133 0 0  0.0134 0 0  0.0135 0 0  0.0136 0 0  0.0137 0 0  0.0138 0 0  0.0139 0 0  0.014 0 0  0.0141 0 0  0.0142 0 0  0.0143 0 0  0.0144 0 0  0.0145 0 0  0.0146 0 0  0.0147 0 0  0.0148 0 0  0.0149 0 0  0.015 0 0  0.0151 0 0  0.0152 0 0  0.0153 0 0  0.0154 0 0  0.0155 0 0  0.0156 0 0  0.0157 0 0  0.0158 0 0  0.0159 0 0  0.016 0 0  0.0161 0 0  0.0162 0 0  0.0163 0 0  0.0164 0 0  0.0165 0 0  0.0166 0 0  0.0167 0 0  0.0168 0 0  0.0169 0 0  0.017 0 0  0.0171 0 0  0.0172 0 0  0.0173 0 0  0.0174 0 0  0.0175 0 0  0.0176 0 0  0.0177 0 0  0.0178 0 0  0.0179 0 0  0.018 0 0  0.0181 0 0  0.0182 0 0  0.0183 0 0  0.0184 0 0  0.0185 0 0  0.0186 0 0  0.0187 0 0  0.0188 0 0  0.0189 0 0  0.019 0 0  0.0191 0 0  0.0192 0 0  0.0193 0 0  0.0194 0 0  0.0195 0 0  0.0196 0 0  0.0197 0 0  0.0198 0 0  0.0199 0 0  0.02 0 0  0.0201 0 0  0.0202 0 0  0.0203 0 0  0.0204 0 0  0.0205 0 0  0.0206 0 0  0.0207 0 0  0.0208 0 0  0.0209 0 0  0.021 0 0  0.0211 0 0  0.0212 0 0  0.0213 0 0  0.0214 0 0  0.0215 0 0  0.0216 0 0  0.0217 0 0  0.0218 0 0  0.0219 0 0  0.022 0 0  0.0221 0 0  0.0222 0 0  0.0223 0 0  0.0224 0 0  0.0225 0 0  0.0226 0 0  0.0227 0 0  0.0228 0 0  0.0229 0 0  0.023 0 0  0.0231 0 0  0.0232 0 0  0.0233 0 0  0.0234 0 0  0.0235 0 0  0.0236 0 0  0.0237 0 0  0.0238 0 0  0.0239 0 0  0.024 0 0  0.0241 0 0  0.0242 0 0  0.0243 0 0  0.0244 0 0  0.0245 0 0  0.0246 0 0  0.0247 0 0  0.0248 0 0  0.0249 0 0  0.025 0 0  0.0251 0 0  0.0252 0 0  0.0253 0 0  0.0254 0 0  0.0255 0 0  0.0256 0 0  0.0257 0 0  0.0258 0 0  0.0259 0 0  0.026 0 0  0.0261 0 0  0.0262 0 0  0.0263 0 0  0.0264 0 0  0.0265 0 0  0.0266 0 0  0.0267 0 0  0.0268 0 0  0.0269 0 0  0.027 0 0  0.0271 0 0  0.0272 0 0  0.0273 0 0  0.0274 0 0  0.0275 0 0  0.0276 0 0  0.0277 0 0  0.0278 0 0  0.0279 0 0  0.028 0 0  0.0281 0 0  0.0282 0 0  0.0283 0 0  0.0284 0 0  0.0285 0 0  0.0286 0 0  0.0287 0 0  0.0288 0 0  0.0289 0 0  0.029 0 0  0.0291 0 0  0.0292 0 0  0.0293 0 0  0.0294 0 0  0.0295 0 0  0.0296 0 0  0.0297 0 0  0.0298 0 0  0.0299 0 0  0.03 0 0  0.0301 0 0  0.0302 0 0  0.0303 0 0  0.0304 0 0  0.0305 0 0  0.0306 0 0  0.0307 0 0  0.0308 0 0  0.0309 0 0  0.031 0 0  0.0311 0 0  0.0312 0 0  0.0313 0 0  0.0314 0 0  0.0315 0 0  0.0316 0 0  0.0317 0 0  0.0318 0 0  0.0319 0 0  0.032 0 0  0.0321 0 0  0.0322 0 0  0.0323 0 0  0.0324 0 0  0.0325 0 0  0.0326 0 0  0.0327 0 0  0.0328 0 0  0.0329 0 0  0.033 0 0  0.0331 0 0  0.0332 0 0  0.0333 0 0  0.0334 0 0  0.0335 0 0  0.0336 0 0  0.0337 0 0  0.0338 0 0  0.0339 0 0  0.034 0 0  0.0341 0 0  0.0342 0 0  0.0343 0 0  0.0344 0 0  0.0345 0 0  0.0346 0 0  0.0347 0 0  0.0348 0 0  0.0349 0 0  0.035 0 0  0.0351 0 0  0.0352 0 0  0.0353 0 0  0.0354 0 0  0.0355 0 0  0.0356 0 0  0.0357 0 0  0.0358 0 0  0.0359 0 0  0.036 0 0  0.0361 0 0  0.0362 0 0  0.0363 0 0  0.0364 0 0  0.0365 0 0  0.0366 0 0  0.0367 0 0  0.0368 0 0  0.0369 0 0  0.037 0 0  0.0371 0 0  0.0372 0 0  0.0373 0 0  0.0374 0 0  0.0375 0 0  0.0376 0 0  0.0377 0 0  0.0378 0 0  0.0379 0 0  0.038 0 0  0.0381 0 0  0.0382 0 0  0.0383 0 0  0.0384 0 0  0.0385 0 0  0.0386 0 0  0.0387 0 0  0.0388 0 0  0.0389 0 0  0.039 0 0  0.0391 0 0  0.0392 0 0  0.0393 0 0  0.0394 0 0  0.0395 0 0  0.0396 0 0  0.0397 0 0  0.0398 0 0  0.0399 0 0  0.04 0 0  0.0401 0 0  0.0402 0 0  0.0403 0 0  0.0404 0 0  0.0405 0 0  0.0406 0 0  0.0407 0 0  0.0408 0 0  0.0409 0 0  0.041 0 0  0.0411 0 0  0.0412 0 0  0.0413 0 0  0.0414 0 0  0.0415 0 0  0.0416 0 0  0.0417 0 0  0.0418 0 0  0.0419 0 0  0.042 0 0  0.0421 0 0  0.0422 0 0  0.0423 0 0  0.0424 0 0  0.0425 0 0  0.0426 0 0  0.0427 0 0  0.0428 0 0  0.0429 0 0  0.043 0 0  0.0431 0 0  0.0432 0 0  0.0433 0 0  0.0434 0 0  0.0435 0 0  0.0436 0 0  0.0437 0 0  0.0438 0 0  0.0439 0 0  0.044 0 0  0.0441 0 0  0.0442 0 0  0.0443 0 0  0.0444 0 0  0.0445 0 0  0.0446 0 0  0.0447 0 0  0.0448 0 0  0.0449 0 0  0.045 0 0  0.0451 0 0  0.0452 0 0  0.0453 0 0  0.0454 0 0  0.0455 0 0  0.0456 0 0  0.0457 0 0  0.0458 0 0  0.0459 0 0  0.046 0 0  0.0461 0 0  0.0462 0 0  0.0463 0 0  0.0464 0 0  0.0465 0 0  0.0466 0 0  0.0467 0 0  0.0468 0 0  0.0469 0 0  0.047 0 0  0.0471 0 0  0.0472 0 0  0.0473 0 0  0.0474 0 0  0.0475 0 0  0.0476 0 0  0.0477 0 0  0.0478 0 0  0.0479 0 0  0.048 0 0  0.0481 0 0  0.0482 0 0  0.0483 0 0  0.0484 0 0  0.0485 0 0  0.0486 0 0  0.0487 0 0  0.0488 0 0  0.0489 0 0  0.049 0 0  0.0491 0 0  0.0492 0 0  0.0493 0 0  0.0494 0 0  0.0495 0 0  0.0496 0 0  0.0497 0 0  0.0498 0 0  0.0499 0 0  0.05 0 0  0.0501 0 0  0.0502 0 0  0.0503 0 0  0.0504 0 0  0.0505 0 0  0.0506 0 0  0.0507 0 0  0.0508 0 0  0.0509 0 0  0.051 0 0  0.0511 0 0  0.0512 0 0  0.0513 0 0  0.0514 0 0  0.0515 0 0  0.0516 0 0  0.0517 0 0  0.0518 0 0  0.0519 0 0  0.052 0 0  0.0521 0 0  0.0522 0 0  0.0523 0 0  0.0524 0 0  0.0525 0 0  0.0526 0 0  0.0527 0 0  0.0528 0 0  0.0529 0 0  0.053 0 0  0.0531 0 0  0.0532 0 0  0.0533 0 0  0.0534 0 0  0.0535 0 0  0.0536 0 0  0.0537 0 0  0.0538 0 0  0.0539 0 0  0.054 0 0  0.0541 0 0  0.0542 0 0  0.0543 0 0  0.0544 0 0  0.0545 0 0  0.0546 0 0  0.0547 0 0  0.0548 0 0  0.0549 0 0  0.055 0 0  0.0551 0 0  0.0552 0 0  0.0553 0 0  0.0554 0 0  0.0555 0 0  0.0556 0 0  0.0557 0 0  0.0558 0 0  0.0559 0 0  0.056 0 0  0.0561 0 0  0.0562 0 0  0.0563 0 0  0.0564 0 0  0.0565 0 0  0.0566 0 0  0.0567 0 0  0.0568 0 0  0.0569 0 0  0.057 0 0  0.0571 0 0  0.0572 0 0  0.0573 0 0  0.0574 0 0  0.0575 0 0  0.0576 0 0  0.0577 0 0  0.0578 0 0  0.0579 0 0  0.058 0 0  0.0581 0 0  0.0582 0 0  0.0583 0 0  0.0584 0 0  0.0585 0 0  0.0586 0 0  0.0587 0 0  0.0588 0 0  0.0589 0 0  0.059 0 0  0.0591 0 0  0.0592 0 0  0.0593 0 0  0.0594 0 0  0.0595 0 0  0.0596 0 0  0.0597 0 0  0.0598 0 0  0.0599 0 0  0.06 0 0  0.0601 0 0  0.0602 0 0  0.0603 0 0  0.0604 0 0  0.0605 0 0  0.0606 0 0  0.0607 0 0  0.0608 0 0  0.0609 0 0  0.061 0 0  0.0611 0 0  0.0612 0 0  0.0613 0 0  0.0614 0 0  0.0615 0 0  0.0616 0 0  0.0617 0 0  0.0618 0 0  0.0619 0 0  0.062 0 0  0.0621 0 0  0.0622 0 0  0.0623 0 0  0.0624 0 0  0.0625 0 0  0.0626 0 0  0.06270000000000001 0 0  0.06279999999999999 0 0  0.0629 0 0  0.063 0 0  0.0631 0 0  0.06320000000000001 0 0  0.0633 0 0  0.0634 0 0  0.0635 0 0  0.0636 0 0  0.06370000000000001 0 0  0.0638 0 0  0.0639 0 0  0.064 0 0  0.0641 0 0  0.06419999999999999 0 0  0.0643 0 0  0.0644 0 0  0.0645 0 0  0.0646 0 0  0.06469999999999999 0 0  0.0648 0 0  0.0649 0 0  0.065 0 0  0.06510000000000001 0 0  0.06519999999999999 0 0  0.0653 0 0  0.0654 0 0  0.0655 0 0  0.06560000000000001 0 0  0.06569999999999999 0 0  0.0658 0 0  0.0659 0 0  0.066 0 0  0.06610000000000001 0 0  0.06619999999999999 0 0  0.0663 0 0  0.0664 0 0  0.0665 0 0  0.06660000000000001 0 0  0.0667 0 0  0.0668 0 0  0.0669 0 0  0.067 0 0  0.06710000000000001 0 0  0.0672 0 0  0.0673 0 0  0.0674 0 0  0.0675 0 0  0.06759999999999999 0 0  0.0677 0 0  0.0678 0 0  0.0679 0 0  0.068 0 0  0.06809999999999999 0 0  0.0682 0 0  0.0683 0 0  0.0684 0 0  0.06850000000000001 0 0  0.06859999999999999 0 0  0.0687 0 0  0.0688 0 0  0.0689 0 0  0.06900000000000001 0 0  0.06909999999999999 0 0  0.0692 0 0  0.0693 0 0  0.0694 0 0  0.06950000000000001 0 0  0.0696 0 0  0.0697 0 0  0.0698 0 0  0.0699 0 0  0.07000000000000001 0 0  0.0701 0 0  0.0702 0 0  0.0703 0 0  0.0704 0 0  0.07049999999999999 0 0  0.0706 0 0  0.0707 0 0  0.0708 0 0  0.0709 0 0  0.07099999999999999 0 0  0.0711 0 0  0.0712 0 0  0.0713 0 0  0.07140000000000001 0 0  0.07149999999999999 0 0  0.0716 0 0  0.0717 0 0  0.0718 0 0  0.07190000000000001 0 0  0.07199999999999999 0 0  0.0721 0 0  0.0722 0 0  0.0723 0 0  0.07240000000000001 0 0  0.0725 0 0  0.0726 0 0  0.0727 0 0  0.0728 0 0  0.07290000000000001 0 0  0.073 0 0  0.0731 0 0  0.0732 0 0  0.0733 0 0  0.07340000000000001 0 0  0.0735 0 0  0.0736 0 0  0.0737 0 0  0.0738 0 0  0.07389999999999999 0 0  0.074 0 0  0.0741 0 0  0.0742 0 0  0.0743 0 0  0.07439999999999999 0 0  0.0745 0 0  0.0746 0 0  0.0747 0 0  0.07480000000000001 0 0  0.07489999999999999 0 0  0.075 0 0  0.0751 0 0  0.0752 0 0  0.07530000000000001 0 0  0.07539999999999999 0 0  0.0755 0 0  0.0756 0 0  0.0757 0 0  0.07580000000000001 0 0  0.0759 0 0  0.076 0 0  0.0761 0 0  0.0762 0 0  0.07630000000000001 0 0  0.0764 0 0  0.0765 0 0  0.0766
[...]
<PointData  Scalars="f_18"> 
<DataArray  type="Float64"  Name="f_18"  format="ascii">0.0000000000000000e+00  4.4640812881575630e-17  8.9281621357279669e-17  1.3392242102124091e-16  1.7856320746758916e-16  2.2320397629045528e-16  2.6784472308397215e-16  3.1248544344227474e-16  3.5712613295950049e-16  4.0176678722978995e-16  4.4640740184728738e-16  4.9104797240614057e-16  5.3568849450050186e-16  5.8032896372452837e-16  6.2496937567238233e-16  6.6960972593823181e-16  7.1425001011625090e-16  7.5889022380061978e-16  8.0353036258552642e-16  8.4817042206516573e-16  8.9281039783374075e-16  9.3745028548546187e-16  9.8209008061454960e-16  1.0267297788152323e-15  1.0713693756817490e-15  1.1160088668083476e-15  1.1606482477892869e-15  1.2052875142188370e-15  1.2499266616912783e-15  1.2945656858009041e-15  1.3392045821420196e-15  1.3838433463089417e-15  1.4284819738960019e-15  1.4731204604975433e-15  1.5177588017079241e-15  1.5623969931215173e-15  1.6070350303327093e-15  1.6516729089359033e-15  1.6963106245255164e-15  1.7409481726959832e-15  1.7855855490417540e-15  1.8302227491572961e-15  1.8748597686370944e-15  1.9194966030756531e-15  1.9641332480674924e-15  2.0087696992071512e-15  2.0534059520891896e-15  2.0980420023081854e-15  2.1426778454587368e-15  2.1873134771354632e-15  2.2319488929330043e-15  2.2765840884460210e-15  2.3212190592691954e-15  2.3658538009972339e-15  2.4104883092248635e-15  2.4551225795468344e-15  2.4997566075579225e-15  2.5443903888529247e-15  2.5890239190266625e-15  2.6336571936739840e-15  2.6782902083897617e-15  2.7229229587688918e-15  2.7675554404063004e-15  2.8121876488969382e-15  2.8568195798357815e-15  2.9014512288178359e-15  2.9460825914381351e-15  2.9907136632917384e-15  3.0353444399737366e-15  3.0799749170792489e-15  3.1246050902034238e-15  3.1692349549414392e-15  3.2138645068885047e-15  3.2584937416398603e-15  3.3031226547907758e-15  3.3477512419365547e-15  3.3923794986725331e-15  3.4370074205940776e-15  3.4816350032965890e-15  3.5262622423755018e-15  3.5708891334262825e-15  3.6155156720444356e-15  3.6601418538254981e-15  3.7047676743650404e-15  3.7493931292586721e-15  3.7940182141020377e-15  3.8386429244908146e-15  3.8832672560207255e-15  3.9278912042875235e-15  3.9725147648869999e-15  4.0171379334149875e-15  4.0617607054673565e-15  4.1063830766400131e-15  4.1510050425289071e-15  4.1956265987300291e-15  4.2402477408394054e-15  4.2848684644531072e-15  4.3294887651672459e-15  4.3741086385779739e-15  4.4187280802814871e-15  4.4633470858740216e-15  4.5079656509518591e-15  4.5525837711113240e-15  4.5972014419487826e-15  4.6418186590606501e-15  4.6864354180433817e-15  4.7310517144934794e-15  4.7756675440074917e-15  4.8202829021820135e-15  4.8648977846136856e-15  4.9095121868991952e-15  4.9541261046352771e-15  4.9987395334187139e-15  5.0433524688463372e-15  5.0879649065150277e-15  5.1325768420217109e-15  5.1771882709633691e-15  5.2217991889370304e-15  5.2664095915397701e-15  5.3110194743687213e-15  5.3556288330210628e-15  5.4002376630940292e-15  5.4448459601849043e-15  5.4894537198910262e-15  5.5340609378097857e-15  5.5786676095386276e-15  5.6232737306750485e-15  5.6678792968166010e-15  5.7124843035608922e-15  5.7570887465055837e-15  5.8016926212483954e-15  5.8462959233871016e-15  5.8908986485195303e-15  5.9355007922435711e-15  5.9801023501571686e-15  6.0247033178583251e-15  6.0693036909451015e-15  6.1139034650156182e-15  6.1585026356680521e-15  6.2031011985006436e-15  6.2476991491116908e-15  6.2922964830995528e-15  6.3368931960626474e-15  6.3814892835994544e-15  6.4260847413085187e-15  6.4706795647884454e-15  6.5152737496378994e-15  6.5598672914556136e-15  6.6044601858403798e-15  6.6490524283910580e-15  6.6936440147065695e-15  6.7382349403859026e-15  6.7828252010281073e-15  6.8274147922323022e-15  6.8720037095976697e-15  6.9165919487234608e-15  6.9611795052089931e-15  7.0057663746536515e-15  7.0503525526568908e-15  7.0949380348182272e-15  7.1395228167372531e-15  7.1841068940136277e-15  7.2286902622470753e-15  7.2732729170373960e-15  7.3178548539844594e-15  7.3624360686882029e-15  7.4070165567486349e-15  7.4515963137658426e-15  7.4961753353399765e-15  7.5407536170712626e-15  7.5853311545600061e-15  7.6299079434065764e-15  7.6744839792114208e-15  7.7190592575750619e-15  7.7636337740980981e-15  7.8082075243812021e-15  7.8527805040251143e-15  7.8973527086306636e-15  7.9419241337987482e-15  7.9864947751303451e-15  8.0310646282265073e-15  8.0756336886883696e-15  8.1202019521171379e-15  8.1647694141141033e-15  8.2093360702806342e-15  8.2539019162181731e-15  8.2984669475282510e-15  8.3430311598124743e-15  8.3875945486725319e-15  8.4321571097101945e-15  8.4767188385273147e-15  8.5212797307258226e-15  8.5658397819077382e-15  8.6103989876751605e-15  8.6549573436302718e-15  8.6995148453753368e-15  8.7440714885127099e-15  8.7886272686448244e-15  8.8331821813742037e-15  8.8777362223034483e-15  8.9222893870352550e-15  8.9668416711724012e-15  9.0113930703177557e-15  9.0559435800742692e-15  9.1004931960449842e-15  9.1450419138330282e-15  9.1895897290416188e-15  9.2341366372740600e-15  9.2786826341337556e-15  9.3232277152241866e-15  9.3677718761489349e-15  9.4123151125116645e-15  9.4568574199161323e-15  9.5013987939661918e-15  9.5459392302657830e-15  9.5904787244189470e-15  9.6350172720298068e-15  9.6795548687025833e-15  9.7240915100415922e-15  9.7686271916512453e-15  9.8131619091360442e-15  9.8576956581005949e-15  9.9022284341495885e-15  9.9467602328878154e-15  9.9912910499201622e-15  1.0035820880851617e-14  1.0080349721287258e-14  1.0124877566832270e-14  1.0169404413091928e-14  1.0213930255671609e-14  1.0258455090176786e-14  1.0302978912213035e-14  1.0347501717386030e-14  1.0392023501301548e-14  1.0436544259565464e-14  1.0481063987783758e-14  1.0525582681562505e-14  1.0570100336507887e-14  1.0614616948226191e-14  1.0659132512323799e-14  1.0703647024407203e-14  1.0748160480082994e-14  1.0792672874957871e-14  1.0837184204638639e-14  1.0881694464732207e-14  1.0926203650845586e-14  1.0970711758585895e-14  1.1015218783560361e-14  1.1059724721376317e-14  1.1104229567641205e-14  1.1148733317962574e-14  1.1193235967948074e-14  1.1237737513205467e-14  1.1282237949342632e-14  1.1326737271967556e-14  1.1371235476688324e-14  1.1415732559113144e-14  1.1460228514850329e-14  1.1504723339508303e-14  1.1549217028695602e-14  1.1593709578020876e-14  1.1638200983092892e-14  1.1682691239520523e-14  1.1727180342912753e-14  1.1771668288878679e-14  1.1816155073027525e-14  1.1860640690968615e-14  1.1905125138311403e-14  1.1949608410665444e-14  1.1994090503640413e-14  1.2038571412846108e-14  1.2083051133892436e-14  1.2127529662389424e-14  1.2172006993947223e-14  1.2216483124176093e-14  1.2260958048686416e-14  1.2305431763088694e-14  1.2349904262993540e-14  1.2394375544011701e-14  1.2438845601754040e-14  1.2483314431831532e-14  1.2527782029855280e-14  1.2572248391436510e-14  1.2616713512186567e-14  1.2661177387716924e-14  1.2705640013639169e-14  1.2750101385565018e-14  1.2794561499106306e-14  1.2839020349875002e-14  1.2883477933483190e-14  1.2927934245543084e-14  1.2972389281667020e-14  1.3016843037467463e-14  1.3061295508557003e-14  1.3105746690548354e-14  1.3150196579054361e-14  1.3194645169687994e-14  1.3239092458062360e-14  1.3283538439790682e-14  1.3327983110486316e-14  1.3372426465762750e-14  1.3416868501233602e-14  1.3461309212512623e-14  1.3505748595213682e-14  1.3550186644950796e-14  1.3594623357338099e-14  1.3639058727989862e-14  1.3683492752520501e-14  1.3727925426544545e-14  1.3772356745676665e-14  1.3816786705531670e-14  1.3861215301724498e-14  1.3905642529870216e-14  1.3950068385584040e-14  1.3994492864481305e-14  1.4038915962177501e-14  1.4083337674288242e-14  1.4127757996429272e-14  1.4172176924216490e-14  1.4216594453265923e-14  1.4261010579193738e-14  1.4305425297616237e-14  1.4349838604149863e-14  1.4394250494411202e-14  1.4438660964016969e-14  1.4483070008584032e-14  1.4527477623729389e-14  1.4571883805070189e-14  1.4616288548223718e-14  1.4660691848807398e-14  1.4705093702438802e-14  1.4749494104735642e-14  1.4793893051315776e-14  1.4838290537797208e-14  1.4882686559798068e-14  1.4927081112936657e-14  1.4971474192831398e-14  1.5015865795100882e-14  1.5060255915363819e-14  1.5104644549239092e-14  1.5149031692345712e-14  1.5193417340302850e-14  1.5237801488729807e-14  1.5282184133246048e-14  1.5326565269471183e-14  1.5370944893024979e-14  1.5415322999527326e-14  1.5459699584598291e-14  1.5504074643858068e-14  1.5548448172927031e-14  1.5592820167425683e-14  1.5637190622974679e-14  1.5681559535194833e-14  1.5725926899707106e-14  1.5770292712132617e-14  1.5814656968092639e-14  1.5859019663208589e-14  1.5903380793102050e-14  1.5947740353394758e-14  1.5992098339708592e-14  1.6036454747665599e-14  1.6080809572887976e-14  1.6125162810998075e-14  1.6169514457618402e-14  1.6213864508371638e-14  1.6258212958880592e-14  1.6302559804768261e-14  1.6346905041657788e-14  1.6391248665172459e-14  1.6435590670935751e-14  1.6479931054571270e-14  1.6524269811702802e-14  1.6568606937954282e-14  1.6612942428949824e-14  1.6657276280313679e-14  1.6701608487670270e-14  1.6745939046644194e-14  1.6790267952860187e-14  1.6834595201943171e-14  1.6878920789518217e-14  1.6923244711210570e-14  1.6967566962645633e-14  1.7011887539448970e-14  1.7056206437246327e-14  1.7100523651663584e-14  1.7144839178326826e-14  1.7189153012862281e-14  1.7233465150896340e-14  1.7277775588055585e-14  1.7322084319966738e-14  1.7366391342256709e-14  1.7410696650552579e-14  1.7455000240481571e-14  1.7499302107671111e-14  1.7543602247748768e-14  1.7587900656342304e-14  1.7632197329079639e-14  1.7676492261588861e-14  1.7720785449498242e-14  1.7765076888436204e-14  1.7809366574031377e-14  1.7853654501912529e-14  1.7897940667708625e-14  1.7942225067048801e-14  1.7986507695562350e-14  1.8030788548878759e-14  1.8075067622627682e-14  1.8119344912438949e-14  1.8163620413942570e-14  1.8207894122768718e-14  1.8252166034547765e-14  1.8296436144910242e-14  1.8340704449486870e-14  1.8384970943908545e-14  1.8429235623806328e-14  1.8473498484811481e-14  1.8517759522555429e-14  1.8562018732669783e-14  1.8606276110786326e-14  1.8650531652537045e-14  1.8694785353554088e-14  1.8739037209469787e-14  1.8783287215916658e-14  1.8827535368527402e-14  1.8871781662934904e-14  1.8916026094772234e-14  1.8960268659672627e-14  1.9004509353269534e-14  1.9048748171196561e-14  1.9092985109087519e-14  1.9137220162576385e-14  1.9181453327297345e-14  1.9225684598884766e-14  1.9269913972973186e-14  1.9314141445197345e-14  1.9358367011192166e-14  1.9402590666592759e-14  1.9446812407034429e-14  1.9491032228152648e-14  1.9535250125583120e-14  1.9579466094961692e-14  1.9623680131924437e-14  1.9667892232107605e-14  1.9712102391147623e-14  1.9756310604681133e-14  1.9800516868344952e-14  1.9844721177776109e-14  1.9888923528611801e-14  1.9933123916489436e-14  1.9977322337046615e-14  2.0021518785921118e-14  2.0065713258750938e-14  2.0109905751174256e-14  2.0154096258829449e-14  2.0198284777355089e-14  2.0242471302389940e-14  2.0286655829572963e-14  2.0330838354543327e-14  2.0375018872940387e-14  2.0419197380403710e-14  2.0463373872573039e-14  2.0507548345088347e-14  2.0551720793589768e-14  2.0595891213717670e-14  2.0640059601112596e-14  2.0684225951415309e-14  2.0728390260266771e-14  2.0772552523308124e-14  2.0816712736180738e-14  2.0860870894526173e-14  2.0905026993986200e-14  2.0949181030202784e-14  2.0993332998818088e-14  2.1037482895474497e-14  2.1081630715814572e-14  2.1125776455481115e-14  2.1169920110117117e-14  2.1214061675365764e-14  2.1258201146870465e-14  2.1302338520274823e-14  2.1346473791222660e-14  2.1390606955357994e-14  2.1434738008325056e-14  2.1478866945768302e-14  2.1522993763332357e-14  2.1567118456662094e-14  2.1611241021402578e-14  2.1655361453199077e-14  2.1699479747697087e-14  2.1743595900542304e-14  2.1787709907380646e-14  2.1831821763858221e-14  2.1875931465621373e-14  2.1920039008316650e-14  2.1964144387590811e-14  2.2008247599090827e-14  2.2052348638463884e-14  2.2096447501357394e-14  2.2140544183418955e-14  2.2184638680296417e-14  2.2228730987637825e-14  2.2272821101091430e-14  2.2316909016305731e-14  2.2360994728929410e-14  2.2405078234611385e-14  2.2449159529000797e-14  2.2493238607746985e-14  2.2537315466499528e-14  2.2581390100908208e-14  2.2625462506623037e-14  2.2669532679294239e-14  2.2713600614572268e-14  2.2757666308107789e-14  2.2801729755551688e-14  2.2845790952555086e-14  2.2889849894769309e-14  2.2933906577845915e-14  2.2977960997436696e-14  2.3022013149193640e-14  2.3066063028768980e-14  2.3110110631815165e-14  2.3154155953984876e-14  2.3198198990931010e-14  2.3242239738306689e-14  2.3286278191765276e-14  2.3330314346960341e-14  2.3374348199545694e-14  2.3418379745175361e-14  2.3462408979503614e-14  2.3506435898184939e-14  2.3550460496874048e-14  2.3594482771225889e-14  2.3638502716895632e-14  2.3682520329538695e-14  2.3726535604810710e-14  2.3770548538367533e-14  2.3814559125865277e-14  2.3858567362960268e-14  2.3902573245309061e-14  2.3946576768568452e-14  2.3990577928395465e-14  2.4034576720447365e-14  2.4078573140381636e-14  2.4122567183856022e-14  2.4166558846528468e-14  2.4210548124057179e-14  2.4254535012100595e-14  2.4298519506317365e-14  2.4342501602366404e-14  2.4386481295906847e-14  2.4430458582598078e-14  2.4474433458099718e-14  2.4518405918071613e-14  2.4562375958173856e-14  2.4606343574066773e-14  2.4650308761410946e-14  2.4694271515867174e-14  2.4738231833096524e-14  2.4782189708760281e-14  2.4826145138519964e-14  2.4870098118037352e-14  2.4914048642974458e-14  2.4957996708993547e-14  2.5001942311757121e-14  2.5045885446927909e-14  2.5089826110168912e-14  2.5133764297143349e-14  2.5177700003514695e-14  2.5221633224946680e-14  2.5265563957103252e-14  2.5309492195648629e-14  2.5353417936247269e-14  2.5397341174563877e-14  2.5441261906263398e-14  2.5485180127011033e-14  2.5529095832472233e-14  2.5573009018312680e-14  2.5616919680198324e-14  2.5660827813795351e-14  2.5704733414770212e-14  2.5748636478789597e-14  2.5792537001520442e-14  2.5836434978629939e-14  2.5880330405785531e-14  2.5924223278654915e-14  2.5968113592906049e-14  2.6012001344207119e-14  2.6055886528226573e-14  2.6099769140633122e-14  2.6143649177095725e-14  2.6187526633283594e-14  2.6231401504866204e-14  2.6275273787513290e-14  2.6319143476894808e-14  2.6363010568681006e-14  2.6406875058542370e-14  2.6450736942149646e-14  2.6494596215173852e-14  2.6538452873286245e-14  2.6582306912158350e-14  2.6626158327461939e-14  2.6670007114869056e-14  2.6713853270051995e-14  2.6757696788683316e-14  2.6801537666435844e-14  2.6845375898982653e-14  2.6889211481997083e-14  2.6933044411152732e-14  2.6976874682123468e-14  2.7020702290583416e-14  2.7064527232206956e-14  2.7108349502668756e-14  2.7152169097643717e-14  2.7195986012807025e-14  2.7239800243834126e-14  2.7283611786400718e-14  2.7327420636182783e-14  2.7371226788856558e-14  2.7415030240098557e-14  2.7458830985585542e-14  2.7502629020994558e-14  2.7546424342002915e-14  2.7590216944288179e-14  2.7634006823528205e-14  2.7677793975401097e-14  2.7721578395585242e-14  2.7765360079759294e-14  2.7809139023602176e-14  2.7852915222793064e-14  2.7896688673011437e-14  2.7940459369937020e-14  2.7984227309249827e-14  2.8027992486630124e-14  2.8071754897758461e-14  2.8115514538315675e-14  2.8159271403982856e-14  2.8203025490441370e-14  2.8246776793372873e-14  2.8290525308459267e-14  2.8334271031382763e-14  2.8378013957825829e-14  2.8421754083471203e-14  2.8465491404001912e-14  2.8509225915101259e-14  2.8552957612452813e-14  2.8596686491740430e-14  2.8640412548648235e-14  2.8684135778860639e-14  2.8727856178062348e-14  2.8771573741938330e-14  2.8815288466173824e-14  2.8859000346454368e-14  2.8902709378465763e-14  2.8946415557894108e-14  2.8990118880425772e-14  2.9033819341747416e-14  2.9077516937545970e-14  2.9121211663508657e-14  2.9164903515322995e-14  2.9208592488676754e-14  2.9252278579258015e-14  2.9295961782755122e-14  2.9339642094856718e-14  2.9383319511251752e-14  2.9426994027629404e-14  2.9470665639679192e-14  2.9514334343090887e-14  2.9558000133554558e-14  2.9601663006760581e-14  2.9645322958399586e-14  2.9688979984162524e-14  2.9732634079740599e-14  2.9776285240825344e-14  2.9819933463108568e-14  2.9863578742282352e-14  2.9907221074039081e-14  2.9950860454071415e-14  2.9994496878072344e-14  3.0038130341735112e-14  3.0081760840753275e-14  3.0125388370820676e-14  3.0169012927631434e-14  3.0212634506879997e-14  3.0256253104261084e-14  3.0299868715469716e-14  3.0343481336201207e-14  3.0387090962151145e-14  3.0430697589015456e-14  3.0474301212490316e-14  3.0517901828272230e-14  3.0561499432057994e-14  3.0605094019544693e-14  3.0648685586429716e-14  3.0692274128410747e-14  3.0735859641185769e-14  3.0779442120453067e-14  3.0823021561911202e-14  3.0866597961259078e-14  3.0910171314195876e-14  3.0953741616421066e-14  3.0997308863634448e-14  3.1040873051536081e-14  3.1084434175826382e-14  3.1127992232206027e-14  3.1171547216376002e-14  3.1215099124037596e-14  3.1258647950892432e-14  3.1302193692642404e-14  3.1345736344989717e-14  3.1389275903636895e-14  3.1432812364286736e-14  3.1476345722642372e-14  3.1519875974407236e-14  3.1563403115285066e-14  3.1606927140979896e-14  3.1650448047196075e-14  3.1693965829638269e-14  3.1737480484011457e-14  3.1780992006020898e-14  3.1824500391372185e-14  3.1868005635771188e-14  3.1911507734924150e-14  3.1955006684537559e-14  3.1998502480318252e-14  3.2041995117973362e-14  3.2085484593210335e-14  3.2128970901736949e-14  3.2172454039261270e-14  3.2215934001491680e-14  3.2259410784136870e-14  3.2302884382905861e-14  3.2346354793507974e-14  3.2389822011652866e-14  3.2433286033050485e-14  3.2476746853411111e-14  3.2520204468445325e-14  3.2563658873864050e-14  3.2607110065378491e-14  3.2650558038700190e-14  3.2694002789541001e-14  3.2737444313613111e-14  3.2780882606629012e-14  3.2824317664301502e-14  3.2867749482343722e-14  3.2911178056469123e-14  3.2954603382391488e-14  3.2998025455824885e-14  3.3041444272483748e-14  3.3084859828082803e-14  3.3128272118337096e-14  3.3171681138962019e-14  3.3215086885673277e-14  3.3258489354186886e-14  3.3301888540219194e-14  3.3345284439486876e-14  3.3388677047706927e-14  3.3432066360596672e-14  3.3475452373873739e-14  3.3518835083256115e-14  3.3562214484462097e-14  3.3605590573210315e-14  3.3648963345219723e-14  3.3692332796209595e-14  3.3735698921899528e-14  3.3779061718009465e-14  3.3822421180259684e-14  3.3865777304370767e-14  3.3909130086063629e-14  3.3952479521059527e-14  3.3995825605080044e-14  3.4039168333847100e-14  3.4082507703082923e-14  3.4125843708510101e-14  3.4169176345851519e-14  3.4212505610830451e-14  3.4255831499170453e-14  3.4299154006595424e-14  3.4342473128829611e-14  3.4385788861597598e-14  3.4429101200624294e-14  3.4472410141634919e-14  3.4515715680355078e-14  3.4559017812510671e-14  3.4602316533827941e-14  3.4645611840033502e-14  3.4688903726854264e-14  3.4732192190017486e-14  3.4775477225250773e-14  3.4818758828282051e-14  3.4862036994839608e-14  3.4905311720652058e-14  3.4948583001448350e-14  3.4991850832957781e-14  3.5035115210909994e-14  3.5078376131034974e-14  3.5121633589063039e-14  3.5164887580724836e-14  3.5208138101751366e-14  3.5251385147873994e-14  3.5294628714824397e-14  3.5337868798334597e-14  3.5381105394136977e-14  3.5424338497964253e-14  3.5467568105549496e-14  3.5510794212626104e-14  3.5554016814927855e-14  3.5597235908188809e-14  3.5640451488143431e-14  3.5683663550526534e-14  3.5726872091073226e-14  3.5770077105519013e-14  3.5813278589599718e-14  3.5856476539051535e-14  3.5899670949610998e-14  3.5942861817015003e-14  3.5986049137000752e-14  3.6029232905305855e-14  3.6072413117668215e-14  3.6115589769826153e-14  3.6158762857518293e-14  3.6201932376483607e-14  3.6245098322461438e-14  3.6288260691191475e-14  3.6331419478413782e-14  3.6374574679868737e-14  3.6417726291297104e-14  3.6460874308439979e-14  3.6504018727038827e-14  3.6547159542835478e-14  3.6590296751572096e