<?xml version="1.0"?>
<VTKFile type="UnstructuredGrid"  version="0.1"  >
<UnstructuredGrid>
<Piece  NumberOfPoints="10001" NumberOfCells="10000">
<Points>
<DataArray  type="Float64"  NumberOfComponents="3"  format="ascii">0 0 0  0.0001 0 0  0.0002 0 0  0.0003 0 0  0.0004 0 0  0.0005 0 0  0.0005999999999999999 0 0  0.0007 0 0  0.0008 0 0  0.0009 0 0  0.001 0 0  0.0011 0 0  0.0012 0 0  0.0013 0 0  0.0014 0 0  0.0015 0 0  0.0016 0 0  0.0017 0 0  0.0018 0 0  0.0019 0 0  0.002 0 0  0.0021 0 0  0.0022 0 0  0.0023 0 0  0.0024 0 0  0.0025 0 0  0.0026 0 0  0.0027 0 0  0.0028 0 0  0.0029 0 0  0.003 0 0  0.0031 0 0  0.0032 0 0  0.0033 0 0  0.0034 0 0  0.0035 0 0  0.0036 0 0  0.0037 0 0  0.0038 0 0  0.0039 0 0  0.004 0 0  0.0041 0 0  0.0042 0 0  0.0043 0 0  0.0044 0 0  0.0045 0 0  0.0046 0 0  0.0047 0 0  0.0048 0 0  0.0049 0 0  0.005 0 0  0.0051 0 0  0.0052 0 0  0.0053 0 0  0.0054 0 0  0.0055 0 0  0.0056 0 0  0.0057 0 0  0.0058 0 0  0.0059 0 0  0.006 0 0  0.0061 0 0  0.0062 0 0  0.0063 0 0  0.0064 0 0  0.0065 0 0  0.0066 0 0  0.0067 0 0  0.0068 0 0  0.0069 0 0  0.007 0 0  0.0071 0 0  0.0072 0 0  0.0073 0 0  0.0074 0 0  0.0075 0 0  0.0076 0 0  0.0077 0 0  0.0078 0 0  0.007900000000000001 0 0  0.008 0 0  0.0081 0 0  0.008200000000000001 0 0  0.0083 0 0  0.008399999999999999 0 0  0.008500000000000001 0 0  0.0086 0 0  0.008699999999999999 0 0  0.008800000000000001 0 0  0.0089 0 0  0.008999999999999999 0 0  0.0091 0 0  0.0092 0 0  0.009299999999999999 0 0  0.0094 0 0  0.0095 0 0  0.009599999999999999 0 0  0.0097 0 0  0.0098 0 0  0.009900000000000001 0 0  0.01 0 0  0.0101 0 0  0.0102 0 0  0.0103 0 0  0.0104 0 0  0.0105 0 0  0.0106 0 0  0.0107 0 0  0.0108 0 0  0.0109 0 0  0.011 0 0  0.0111 0 0  0.0112 0 0  0.0113 0 0  0.0114 0 0  0.0115 0 0  0.0116 0 0  0.0117 0 0  0.0118 0 0  0.0119 0 0  0.012 0 0  0.0121 0 0  0.0122 0 0  0.0123 0 0  0.0124 0 0  0.0125 0 0  0.0126 0 0  0.0127 0 0  0.0128 0 0  0.0129 0 0  0.013 0 0  0.0131 0 0  0.0132 0 0  0.0133 0 0  0.0134 0 0  0.0135 0 0  0.0136 0 0  0.0137 0 0  0.0138 0 0  0.0139 0 0  0.014 0 0  0.0141 0 0  0.0142 0 0  0.0143 0 0  0.0144 0 0  0.0145 0 0  0.0146 0 0  0.0147 0 0  0.0148 0 0  0.0149 0 0  0.015 0 0  0.0151 0 0  0.0152 0 0  0.0153 0 0  0.0154 0 0  0.0155 0 0  0.0156 0 0  0.0157 0 0  0.0158 0 0  0.0159 0 0  0.016 0 0  0.0161 0 0  0.0162 0 0  0.0163 0 0  0.0164 0 0  0.0165 0 0  0.0166 0 0  0.0167 0 0  0.0168 0 0  0.0169 0 0  0.017 0 0  0.0171 0 0  0.0172 0 0  0.0173 0 0  0.0174 0 0  0.0175 0 0  0.0176 0 0  0.0177 0 0  0.0178 0 0  0.0179 0 0  0.018 0 0  0.0181 0 0  0.0182 0 0  0.0183 0 0  0.0184 0 0  0.0185 0 0  0.0186 0 0  0.0187 0 0  0.0188 0 0  0.0189 0 0  0.019 0 0  0.0191 0 0  0.0192 0 0  0.0193 0 0  0.0194 0 0  0.0195 0 0  0.0196 0 0  0.0197 0 0  0.0198 0 0  0.0199 0 0  0.02 0 0  0.0201 0 0  0.0202 0 0  0.0203 0 0  0.0204 0 0  0.0205 0 0  0.0206 0 0  0.0207 0 0  0.0208 0 0  0.0209 0 0  0.021 0 0  0.0211 0 0  0.0212 0 0  0.0213 0 0  0.0214 0 0  0.0215 0 0  0.0216 0 0  0.0217 0 0  0.0218 0 0  0.0219 0 0  0.022 0 0  0.0221 0 0  0.0222 0 0  0.0223 0 0  0.0224 0 0  0.0225 0 0  0.0226 0 0  0.0227 0 0  0.0228 0 0  0.0229 0 0  0.023 0 0  0.0231 0 0  0.0232 0 0  0.0233 0 0  0.0234 0 0  0.0235 0 0  0.0236 0 0  0.0237 0 0  0.0238 0 0  0.0239 0 0  0.024 0 0  0.0241 0 0  0.0242 0 0  0.0243 0 0  0.0244 0 0  0.0245 0 0  0.0246 0 0  0.0247 0 0  0.0248 0 0  0.0249 0 0  0.025 0 0  0.0251 0 0  0.0252 0 0  0.0253 0 0  0.0254 0 0  0.0255 0 0  0.0256 0 0  0.0257 0 0  0.0258 0 0  0.0259 0 0  0.026 0 0  0.0261 0 0  0.0262 0 0  0.0263 0 0  0.0264 0 0  0.0265 0 0  0.0266 0 0  0.0267 0 0  0.0268 0 0  0.0269 0 0  0.027 0 0  0.0271 0 0  0.0272 0 0  0.0273 0 0  0.0274 0 0  0.0275 0 0  0.0276 0 0  0.0277 0 0  0.0278 0 0  0.0279 0 0  0.028 0 0  0.0281 0 0  0.0282 0 0  0.0283 0 0  0.0284 0 0  0.0285 0 0  0.0286 0 0  0.0287 0 0  0.0288 0 0  0.0289 0 0  0.029 0 0  0.0291 0 0  0.0292 0 0  0.0293 0 0  0.0294 0 0  0.0295 0 0  0.0296 0 0  0.0297 0 0  0.0298 0 0  0.0299 0 0  0.03 0 0  0.0301 0 0  0.0302 0 0  0.0303 0 0  0.0304 0 0  0.0305 0 0  0.0306 0 0  0.0307 0 0  0.0308 0 0  0.0309 0 0  0.031 0 0  0.0311 0 0  0.0312 0 0  0.0313 0 0  0.0314 0 0  0.0315 0 0  0.0316 0 0  0.0317 0 0  0.0318 0 0  0.0319 0 0  0.032 0 0  0.0321 0 0  0.0322 0 0  0.0323 0 0  0.0324 0 0  0.0325 0 0  0.0326 0 0  0.0327 0 0  0.0328 0 0  0.0329 0 0  0.033 0 0  0.0331 0 0  0.0332 0 0  0.0333 0 0  0.0334 0 0  0.0335 0 0  0.0336 0 0  0.0337 0 0  0.0338 0 0  0.0339 0 0  0.034 0 0  0.0341 0 0  0.0342 0 0  0.0343 0 0  0.0344 0 0  0.0345 0 0  0.0346 0 0  0.0347 0 0  0.0348 0 0  0.0349 0 0  0.035 0 0  0.0351 0 0  0.0352 0 0  0.0353 0 0  0.0354 0 0  0.0355 0 0  0.0356 0 0  0.0357 0 0  0.0358 0 0  0.0359 0 0  0.036 0 0  0.0361 0 0  0.0362 0 0  0.0363 0 0  0.0364 0 0  0.0365 0 0  0.0366 0 0  0.0367 0 0  0.0368 0 0  0.0369 0 0  0.037 0 0  0.0371 0 0  0.0372 0 0  0.0373 0 0  0.0374 0 0  0.0375 0 0  0.0376 0 0  0.0377 0 0  0.0378 0 0  0.0379 0 0  0.038 0 0  0.0381 0 0  0.0382 0 0  0.0383 0 0  0.0384 0 0  0.0385 0 0  0.0386 0 0  0.0387 0 0  0.0388 0 0  0.0389 0 0  0.039 0 0  0.0391 0 0  0.0392 0 0  0.0393 0 0  0.0394 0 0  0.0395 0 0  0.0396 0 0  0.0397 0 0  0.0398 0 0  0.0399 0 0  0.04 0 0  0.0401 0 0  0.0402 0 0  0.0403 0 0  0.0404 0 0  0.0405 0 0  0.0406 0 0  0.0407 0 0  0.0408 0 0  0.0409 0 0  0.041 0 0  0.0411 0 0  0.0412 0 0  0.0413 0 0  0.0414 0 0  0.0415 0 0  0.0416 0 0  0.0417 0 0  0.0418 0 0  0.0419 0 0  0.042 0 0  0.0421 0 0  0.0422 0 0  0.0423 0 0  0.0424 0 0  0.0425 0 0  0.0426 0 0  0.0427 0 0  0.0428 0 0  0.0429 0 0  0.043 0 0  0.0431 0 0  0.0432 0 0  0.0433 0 0  0.0434 0 0  0.0435 0 0  0.0436 0 0  0.0437 0 0  0.0438 0 0  0.0439 0 0  0.044 0 0  0.0441 0 0  0.0442 0 0  0.0443 0 0  0.0444 0 0  0.0445 0 0  0.0446 0 0  0.0447 0 0  0.0448 0 0  0.0449 0 0  0.045 0 0  0.0451 0 0  0.0452 0 0  0.0453 0 0  0.0454 0 0  0.0455 0 0  0.0456 0 0  0.0457 0 0  0.0458 0 0  0.0459 0 0  0.046 0 0  0.0461 0 0  0.0462 0 0  0.0463 0 0  0.0464 0 0  0.0465 0 0  0.0466 0 0  0.0467 0 0  0.0468 0 0  0.0469 0 0  0.047 0 0  0.0471 0 0  0.0472 0 0  0.0473 0 0  0.0474 0 0  0.0475 0 0  0.0476 0 0  0.0477 0 0  0.0478 0 0  0.0479 0 0  0.048 0 0  0.0481 0 0  0.0482 0 0  0.0483 0 0  0.0484 0 0  0.0485 0 0  0.0486 0 0  0.0487 0 0  0.0488 0 0  0.0489 0 0  0.049 0 0  0.0491 0 0  0.0492 0 0  0.0493 0 0  0.0494 0 0  0.0495 0 0  0.0496 0 0  0.0497 0 0  0.0498 0 0  0.0499 0 0  0.05 0 0  0.0501 0 0  0.0502 0 0  0.0503 0 0  0.0504 0 0  0.0505 0 0  0.0506 0 0  0.0507 0 0  0.0508 0 0  0.0509 0 0  0.051 0 0  0.0511 0 0  0.0512 0 0  0.0513 0 0  0.0514 0 0  0.0515 0 0  0.0516 0 0  0.0517 0 0  0.0518 0 0  0.0519 0 0  0.052 0 0  0.0521 0 0  0.0522 0 0  0.0523 0 0  0.0524 0 0  0.0525 0 0  0.0526 0 0  0.0527 0 0  0.0528 0 0  0.0529 0 0  0.053 0 0  0.0531 0 0  0.0532 0 0  0.0533 0 0  0.0534 0 0  0.0535 0 0  0.0536 0 0  0.0537 0 0  0.0538 0 0  0.0539 0 0  0.054 0 0  0.0541 0 0  0.0542 0 0  0.0543 0 0  0.0544 0 0  0.0545 0 0  0.0546 0 0  0.0547 0 0  0.0548 0 0  0.0549 0 0  0.055 0 0  0.0551 0 0  0.0552 0 0  0.0553 0 0  0.0554 0 0  0.0555 0 0  0.0556 0 0  0.0557 0 0  0.0558 0 0  0.0559 0 0  0.056 0 0  0.0561 0 0  0.0562 0 0  0.0563 0 0  0.0564 0 0  0.0565 0 0  0.0566 0 0  0.0567 0 0  0.0568 0 0  0.0569 0 0  0.057 0 0  0.0571 0 0  0.0572 0 0  0.0573 0 0  0.0574 0 0  0.0575 0 0  0.0576 0 0  0.0577 0 0  0.0578 0 0  0.0579 0 0  0.058 0 0  0.0581 0 0  0.0582 0 0  0.0583 0 0  0.0584 0 0  0.0585 0 0  0.0586 0 0  0.0587 0 0  0.0588 0 0  0.0589 0 0  0.059 0 0  0.0591 0 0  0.0592 0 0  0.0593 0 0  0.0594 0 0  0.0595 0 0  0.0596 0 0  0.0597 0 0  0.0598 0 0  0.0599 0 0  0.06 0 0  0.0601 0 0  0.0602 0 0  0.0603 0 0  0.0604 0 0  0.0605 0 0  0.0606 0 0  0.0607 0 0  0.0608 0 0  0.0609 0 0  0.061 0 0  0.0611 0 0  0.0612 0 0  0.0613 0 0  0.0614 0 0  0.0615 0 0  0.0616 0 0  0.0617 0 0  0.0618 0 0  0.0619 0 0  0.062 0 0  0.0621 0 0  0.0622 0 0  0.0623 0 0  0.0624 0 0  0.0625 0 0  0.0626 0 0  0.06270000000000001 0 0  0.06279999999999999 0 0  0.0629 0 0  0.063 0 0  0.0631 0 0  0.06320000000000001 0 0  0.0633 0 0  0.0634 0 0  0.0635 0 0  0.0636 0 0  0.06370000000000001 0 0  0.0638 0 0  0.0639 0 0  0.064 0 0  0.0641 0 0  0.06419999999999999 0 0  0.0643 0 0  0.0644 0 0  0.0645 0 0  0.0646 0 0  0.06469999999999999 0 0  0.0648 0 0  0.0649 0 0  0.065 0 0  0.06510000000000001 0 0  0.06519999999999999 0 0  0.0653 0 0  0.0654 0 0  0.0655 0 0  0.06560000000000001 0 0  0.06569999999999999 0 0  0.0658 0 0  0.0659 0 0  0.066 0 0  0.06610000000000001 0 0  0.06619999999999999 0 0  0.0663 0 0  0.0664 0 0  0.0665 0 0  0.06660000000000001 0 0  0.0667 0 0  0.0668 0 0  0.0669 0 0  0.067 0 0  0.06710000000000001 0 0  0.0672 0 0  0.0673 0 0  0.0674 0 0  0.0675 0 0  0.06759999999999999 0 0  0.0677 0 0  0.0678 0 0  0.0679 0 0  0.068 0 0  0.06809999999999999 0 0  0.0682 0 0  0.0683 0 0  0.0684 0 0  0.06850000000000001 0 0  0.06859999999999999 0 0  0.0687 0 0  0.0688 0 0  0.0689 0 0  0.06900000000000001 0 0  0.06909999999999999 0 0  0.0692 0 0  0.0693 0 0  0.0694 0 0  0.06950000000000001 0 0  0.0696 0 0  0.0697 0 0  0.0698 0 0  0.0699 0 0  0.07000000000000001 0 0  0.0701 0 0  0.0702 0 0  0.0703 0 0  0.0704 0 0  0.07049999999999999 0 0  0.0706 0 0  0.0707 0 0  0.0708 0 0  0.0709 0 0  0.07099999999999999 0 0  0.0711 0 0  0.0712 0 0  0.0713 0 0  0.07140000000000001 0 0  0.07149999999999999 0 0  0.0716 0 0  0.0717 0 0  0.0718 0 0  0.07190000000000001 0 0  0.07199999999999999 0 0  0.0721 0 0  0.0722 0 0  0.0723 0 0  0.07240000000000001 0 0  0.0725 0 0  0.0726 0 0  0.0727 0 0  0.0728 0 0  0.07290000000000001 0 0  0.073 0 0  0.0731 0 0  0.0732 0 0  0.0733 0 0  0.07340000000000001 0 0  0.0735 0 0  0.0736 0 0  0.0737 0 0  0.0738 0 0  0.07389999999999999 0 0  0.074 0 0  0.0741 0 0  0.0742 0 0  0.0743 0 0  0.07439999999999999 0 0  0.0745 0 0  0.0746 0 0  0.0747 0 0  0.07480000000000001 0 0  0.07489999999999999 0 0  0.075 0 0  0.0751 0 0  0.0752 0 0  0.07530000000000001 0 0  0.07539999999999999 0 0  0.0755 0 0  0.0756 0 0  0.0757 0 0  0.07580000000000001 0 0  0.0759 0 0  0.076 0 0  0.0761 0 0  0.0762 0 0  0.07630000000000001 0 0  0.0764 0 0  0.0765 0 0  0.0766
[...]
<PointData  Scalars="f_18"> 
<DataArray  type="Float64"  Name="f_18"  format="ascii">0.0000000000000000e+00  2.2466885507080571e-17  4.4933768796768441e-17  6.7400647651671121e-17  8.9867519854396562e-17  1.1233438318755336e-16  1.3480123543375102e-16  1.5726807437560017e-16  1.7973489779571264e-16  2.0220170347670193e-16  2.2466848920118316e-16  2.4713525275177356e-16  2.6960199191109228e-16  2.9206870446176111e-16  3.1453538818640451e-16  3.3700204086764960e-16  3.5946866028812681e-16  3.8193524423046936e-16  4.0440179047731464e-16  4.2686829681130331e-16  4.4933476101508026e-16  4.7180118087129429e-16  4.9426755416259860e-16  5.1673387867165113e-16  5.3920015218111465e-16  5.6166637247365676e-16  5.8413253733195027e-16  6.0659864453867373e-16  6.2906469187651131e-16  6.5153067712815309e-16  6.7399659807629506e-16  6.9646245250363974e-16  7.1892823819289642e-16  7.4139395292678054e-16  7.6385959448801520e-16  7.8632516065933052e-16  8.0879064922346382e-16  8.3125605796316069e-16  8.5372138466117373e-16  8.7618662710026432e-16  8.9865178306320171e-16  9.2111685033276386e-16  9.4358182669173756e-16  9.6604670992291862e-16  9.8851149780911208e-16  1.0109761881331321e-15  1.0334407786778028e-15  1.0559052672259575e-15  1.0783696515604403e-15  1.1008339294641057e-15  1.1232980987198181e-15  1.1457621571104523e-15  1.1682261024188952e-15  1.1906899324280445e-15  1.2131536449208088e-15  1.2356172376801084e-15  1.2580807084888762e-15  1.2805440551300561e-15  1.3030072753866045e-15  1.3254703670414907e-15  1.3479333278776961e-15  1.3703961556782153e-15  1.3928588482260565e-15  1.4153214033042404e-15  1.4377838186958019e-15  1.4602460921837894e-15  1.4827082215512655e-15  1.5051702045813067e-15  1.5276320390570041e-15  1.5500937227614642e-15  1.5725552534778070e-15  1.5950166289891685e-15  1.6174778470786998e-15  1.6399389055295674e-15  1.6623998021249538e-15  1.6848605346480570e-15  1.7073211008820927e-15  1.7297814986102910e-15  1.7522417256158997e-15  1.7747017796821836e-15  1.7971616585924232e-15  1.8196213601299182e-15  1.8420808820779850e-15  1.8645402222199568e-15  1.8869993783391861e-15  1.9094583482190431e-15  1.9319171296429160e-15  1.9543757203942119e-15  1.9768341182563577e-15  1.9992923210127978e-15  2.0217503264469958e-15  2.0442081323424362e-15  2.0666657364826220e-15  2.0891231366510769e-15  2.1115803306313441e-15  2.1340373162069875e-15  2.1564940911615911e-15  2.1789506532787610e-15  2.2014070003421228e-15  2.2238631301353244e-15  2.2463190404420334e-15  2.2687747290459417e-15  2.2912301937307610e-15  2.3136854322802257e-15  2.3361404424780926e-15  2.3585952221081422e-15  2.3810497689541743e-15  2.4035040808000160e-15  2.4259581554295143e-15  2.4484119906265416e-15  2.4708655841749930e-15  2.4933189338587879e-15  2.5157720374618687e-15  2.5382248927682036e-15  2.5606774975617849e-15  2.5831298496266280e-15  2.6055819467467760e-15  2.6280337867062954e-15  2.6504853672892781e-15  2.6729366862798422e-15  2.6953877414621302e-15  2.7178385306203128e-15  2.7402890515385864e-15  2.7627393020011718e-15  2.7851892797923201e-15  2.8076389826963066e-15  2.8300884084974338e-15  2.8525375549800328e-15  2.8749864199284614e-15  2.8974350011271052e-15  2.9198832963603782e-15  2.9423313034127235e-15  2.9647790200686102e-15  2.9872264441125383e-15  3.0096735733290364e-15  3.0321204055026602e-15  3.0545669384179974e-15  3.0770131698596637e-15  3.0994590976123037e-15  3.1219047194605951e-15  3.1443500331892431e-15  3.1667950365829837e-15  3.1892397274265840e-15  3.2116841035048414e-15  3.2341281626025849e-15  3.2565719025046752e-15  3.2790153209960030e-15  3.3014584158614930e-15  3.3239011848860995e-15  3.3463436258548109e-15  3.3687857365526467e-15  3.3912275147646604e-15  3.4136689582759357e-15  3.4361100648715913e-15  3.4585508323367800e-15  3.4809912584566839e-15  3.5034313410165246e-15  3.5258710778015536e-15  3.5483104665970593e-15  3.5707495051883610e-15  3.5931881913608149e-15  3.6156265228998114e-15  3.6380644975907768e-15  3.6605021132191708e-15  3.6829393675704898e-15  3.7053762584302648e-15  3.7278127835840645e-15  3.7502489408174926e-15  3.7726847279161888e-15  3.7951201426658284e-15  3.8175551828521271e-15  3.8399898462608336e-15  3.8624241306777343e-15  3.8848580338886568e-15  3.9072915536794636e-15  3.9297246878360554e-15  3.9521574341443679e-15  3.9745897903903795e-15  3.9970217543601053e-15  4.0194533238395995e-15  4.0418844966149530e-15  4.0643152704723003e-15  4.0867456431978114e-15  4.1091756125776987e-15  4.1316051763982112e-15  4.1540343324456386e-15  4.1764630785063134e-15  4.1988914123666084e-15  4.2213193318129340e-15  4.2437468346317433e-15  4.2661739186095306e-15  4.2886005815328319e-15  4.3110268211882240e-15  4.3334526353623275e-15  4.3558780218418013e-15  4.3783029784133495e-15  4.4007275028637170e-15  4.4231515929796931e-15  4.4455752465481088e-15  4.4679984613558368e-15  4.4904212351897951e-15  4.5128435658369439e-15  4.5352654510842902e-15  4.5576868887188803e-15  4.5801078765278080e-15  4.6025284122982111e-15  4.6249484938172701e-15  4.6473681188722121e-15  4.6697872852503089e-15  4.6922059907388768e-15  4.7146242331252808e-15  4.7370420101969279e-15  4.7594593197412705e-15  4.7818761595458112e-15  4.8042925273980939e-15  4.8267084210857150e-15  4.8491238383963131e-15  4.8715387771175753e-15  4.8939532350372342e-15  4.9163672099430722e-15  4.9387806996229198e-15  4.9611937018646548e-15  4.9836062144562015e-15  5.0060182351855341e-15  5.0284297618406724e-15  5.0508407922096898e-15  5.0732513240807056e-15  5.0956613552418910e-15  5.1180708834814631e-15  5.1404799065876893e-15  5.1628884223488878e-15  5.1852964285534278e-15  5.2077039229897259e-15  5.2301109034462524e-15  5.2525173677115256e-15  5.2749233135741192e-15  5.2973287388226518e-15  5.3197336412457986e-15  5.3421380186322832e-15  5.3645418687708820e-15  5.3869451894504248e-15  5.4093479784597907e-15  5.4317502335879137e-15  5.4541519526237791e-15  5.4765531333564293e-15  5.4989537735749528e-15  5.5213538710684977e-15  5.5437534236262606e-15  5.5661524290374961e-15  5.5885508850915097e-15  5.6109487895776664e-15  5.6333461402853758e-15  5.6557429350041093e-15  5.6781391715233935e-15  5.7005348476328093e-15  5.7229299611219891e-15  5.7453245097806273e-15  5.7677184913984674e-15  5.7901119037653130e-15  5.8125047446710225e-15  5.8348970119055124e-15  5.8572887032587564e-15  5.8796798165207804e-15  5.9020703494816719e-15  5.9244602999315702e-15  5.9468496656606789e-15  5.9692384444592550e-15  5.9916266341176162e-15  6.0140142324261363e-15  6.0364012371752459e-15  6.0587876461554371e-15  6.0811734571572612e-15  6.1035586679713262e-15  6.1259432763883002e-15  6.1483272801989128e-15  6.1707106771939495e-15  6.1930934651642590e-15  6.2154756419007459e-15  6.2378572051943797e-15  6.2602381528361897e-15  6.2826184826172628e-15  6.3049981923287506e-15  6.3273772797618614e-15  6.3497557427078700e-15  6.3721335789581118e-15  6.3945107863039828e-15  6.4168873625369409e-15  6.4392633054485051e-15  6.4616386128302602e-15  6.4840132824738517e-15  6.5063873121709887e-15  6.5287606997134414e-15  6.5511334428930462e-15  6.5735055395017016e-15  6.5958769873313679e-15  6.6182477841740731e-15  6.6406179278219083e-15  6.6629874160670301e-15  6.6853562467016559e-15  6.7077244175180709e-15  6.7300919263086257e-15  6.7524587708657365e-15  6.7748249489818841e-15  6.7971904584496148e-15  6.8195552970615412e-15  6.8419194626103422e-15  6.8642829528887627e-15  6.8866457656896174e-15  6.9090078988057815e-15  6.9313693500302037e-15  6.9537301171558980e-15  6.9760901979759431e-15  6.9984495902834867e-15  7.0208082918717485e-15  7.0431663005340086e-15  7.0655236140636243e-15  7.0878802302540158e-15  7.1102361468986715e-15  7.1325913617911536e-15  7.1549458727250908e-15  7.1772996774941843e-15  7.1996527738921952e-15  7.2220051597129683e-15  7.2443568327504083e-15  7.2667077907984926e-15  7.2890580316512710e-15  7.3114075531028596e-15  7.3337563529474566e-15  7.3561044289793202e-15  7.3784517789927811e-15  7.4007984007822457e-15  7.4231442921421930e-15  7.4454894508671730e-15  7.4678338747518036e-15  7.4901775615907785e-15  7.5125205091788667e-15  7.5348627153109025e-15  7.5572041777818050e-15  7.5795448943865565e-15  7.6018848629202182e-15  7.6242240811779239e-15  7.6465625469548767e-15  7.6689002580463635e-15  7.6912372122477373e-15  7.7135734073544317e-15  7.7359088411619528e-15  7.7582435114658793e-15  7.7805774160618687e-15  7.8029105527456512e-15  7.8252429193130390e-15  7.8475745135599137e-15  7.8699053332822358e-15  7.8922353762760384e-15  7.9145646403374366e-15  7.9368931232626211e-15  7.9592208228478571e-15  7.9815477368894916e-15  8.0038738631839457e-15  8.0261991995277195e-15  8.0485237437173936e-15  8.0708474935496164e-15  8.0931704468211276e-15  8.1154926013287399e-15  8.1378139548693399e-15  8.1601345052399039e-15  8.1824542502374782e-15  8.2047731876591937e-15  8.2270913153022622e-15  8.2494086309639678e-15  8.2717251324416863e-15  8.2940408175328596e-15  8.3163556840350228e-15  8.3386697297457836e-15  8.3609829524628378e-15  8.3832953499839605e-15  8.4056069201069990e-15  8.4279176606298955e-15  8.4502275693506646e-15  8.4725366440674079e-15  8.4948448825783088e-15  8.5171522826816296e-15  8.5394588421757260e-15  8.5617645588590197e-15  8.5840694305300301e-15  8.6063734549873510e-15  8.6286766300296661e-15  8.6509789534557395e-15  8.6732804230644189e-15  8.6955810366546403e-15  8.7178807920254187e-15  8.7401796869758576e-15  8.7624777193051452e-15  8.7847748868125539e-15  8.8070711872974425e-15  8.8293666185592489e-15  8.8516611783975085e-15  8.8739548646118344e-15  8.8962476750019262e-15  8.9185396073675736e-15  8.9408306595086466e-15  8.9631208292251116e-15  8.9854101143170123e-15  9.0076985125844900e-15  9.0299860218277684e-15  9.0522726398471513e-15  9.0745583644430437e-15  9.0968431934159310e-15  9.1191271245663900e-15  9.1414101556950846e-15  9.1636922846027651e-15  9.1859735090902767e-15  9.2082538269585513e-15  9.2305332360086075e-15  9.2528117340415603e-15  9.2750893188586050e-15  9.2973659882610348e-15  9.3196417400502281e-15  9.3419165720276597e-15  9.3641904819948860e-15  9.3864634677535664e-15  9.4087355271054452e-15  9.4310066578523506e-15  9.4532768577962195e-15  9.4755461247390628e-15  9.4978144564829989e-15  9.5200818508302315e-15  9.5423483055830554e-15  9.5646138185438574e-15  9.5868783875151201e-15  9.6091420102994210e-15  9.6314046846994229e-15  9.6536664085178940e-15  9.6759271795576896e-15  9.6981869956217578e-15  9.7204458545131462e-15  9.7427037540349877e-15  9.7649606919905192e-15  9.7872166661830692e-15  9.8094716744160577e-15  9.8317257144930071e-15  9.8539787842175299e-15  9.8762308813933364e-15  9.8984820038242331e-15  9.9207321493141196e-15  9.9429813156670011e-15  9.9652295006869650e-15  9.9874767021782092e-15  1.0009722917945018e-14  1.0031968145791780e-14  1.0054212383522986e-14  1.0076455628943206e-14  1.0098697879857128e-14  1.0120939134069525e-14  1.0143179389385279e-14  1.0165418643609361e-14  1.0187656894546844e-14  1.0209894140002903e-14  1.0232130377782805e-14  1.0254365605691925e-14  1.0276599821535735e-14  1.0298833023119806e-14  1.0321065208249809e-14  1.0343296374731513e-14  1.0365526520370792e-14  1.0387755642973613e-14  1.0409983740346054e-14  1.0432210810294295e-14  1.0454436850624604e-14  1.0476661859143363e-14  1.0498885833657052e-14  1.0521108771972251e-14  1.0543330671895650e-14  1.0565551531234025e-14  1.0587771347794273e-14  1.0609990119383378e-14  1.0632207843808440e-14  1.0654424518876660e-14  1.0676640142395334e-14  1.0698854712171875e-14  1.0721068226013784e-14  1.0743280681728681e-14  1.0765492077124282e-14  1.0787702410008412e-14  1.0809911678189003e-14  1.0832119879474080e-14  1.0854327011671788e-14  1.0876533072590366e-14  1.0898738060038165e-14  1.0920941971823641e-14  1.0943144805755355e-14  1.0965346559641978e-14  1.0987547231292282e-14  1.1009746818515149e-14  1.1031945319119566e-14  1.1054142730914635e-14  1.1076339051709554e-14  1.1098534279313636e-14  1.1120728411536298e-14  1.1142921446187067e-14  1.1165113381075581e-14  1.1187304214011584e-14  1.1209493942804923e-14  1.1231682565265568e-14  1.1253870079203580e-14  1.1276056482429146e-14  1.1298241772752557e-14  1.1320425947984206e-14  1.1342609005934611e-14  1.1364790944414387e-14  1.1386971761234265e-14  1.1409151454205085e-14  1.1431330021137800e-14  1.1453507459843475e-14  1.1475683768133279e-14  1.1497858943818505e-14  1.1520032984710545e-14  1.1542205888620914e-14  1.1564377653361236e-14  1.1586548276743236e-14  1.1608717756578770e-14  1.1630886090679791e-14  1.1653053276858378e-14  1.1675219312926715e-14  1.1697384196697100e-14  1.1719547925981950e-14  1.1741710498593793e-14  1.1763871912345268e-14  1.1786032165049132e-14  1.1808191254518256e-14  1.1830349178565627e-14  1.1852505935004341e-14  1.1874661521647620e-14  1.1896815936308790e-14  1.1918969176801297e-14  1.1941121240938712e-14  1.1963272126534707e-14  1.1985421831403082e-14  1.2007570353357745e-14  1.2029717690212723e-14  1.2051863839782167e-14  1.2074008799880335e-14  1.2096152568321609e-14  1.2118295142920484e-14  1.2140436521491582e-14  1.2162576701849631e-14  1.2184715681809486e-14  1.2206853459186116e-14  1.2228990031794607e-14  1.2251125397450170e-14  1.2273259553968126e-14  1.2295392499163929e-14  1.2317524230853144e-14  1.2339654746851454e-14  1.2361784044974664e-14  1.2383912123038699e-14  1.2406038978859608e-14  1.2428164610253558e-14  1.2450289015036839e-14  1.2472412191025861e-14  1.2494534136037146e-14  1.2516654847887351e-14  1.2538774324393248e-14  1.2560892563371733e-14  1.2583009562639823e-14  1.2605125320014657e-14  1.2627239833313500e-14  1.2649353100353731e-14  1.2671465118952862e-14  1.2693575886928525e-14  1.2715685402098472e-14  1.2737793662280582e-14  1.2759900665292857e-14  1.2782006408953423e-14  1.2804110891080529e-14  1.2826214109492555e-14  1.2848316062008000e-14  1.2870416746445485e-14  1.2892516160623762e-14  1.2914614302361705e-14  1.2936711169478320e-14  1.2958806759792731e-14  1.2980901071124187e-14  1.3002994101292072e-14  1.3025085848115887e-14  1.3047176309415268e-14  1.3069265483009976e-14  1.3091353366719891e-14  1.3113439958365029e-14  1.3135525255765526e-14  1.3157609256741653e-14  1.3179691959113807e-14  1.3201773360702515e-14  1.3223853459328433e-14  1.3245932252812336e-14  1.3268009738975134e-14  1.3290085915637867e-14  1.3312160780621706e-14  1.3334234331747951e-14  1.3356306566838029e-14  1.3378377483713499e-14  1.3400447080196045e-14  1.3422515354107483e-14  1.3444582303269766e-14  1.3466647925504975e-14  1.3488712218635321e-14  1.3510775180483141e-14  1.3532836808870912e-14  1.3554897101621234e-14  1.3576956056556846e-14  1.3599013671500620e-14  1.3621069944275550e-14  1.3643124872704775e-14  1.3665178454611555e-14  1.3687230687819291e-14  1.3709281570151519e-14  1.3731331099431899e-14  1.3753379273484230e-14  1.3775426090132442e-14  1.3797471547200611e-14  1.3819515642512929e-14  1.3841558373893738e-14  1.3863599739167502e-14  1.3885639736158824e-14  1.3907678362692451e-14  1.3929715616593252e-14  1.3951751495686240e-14  1.3973785997796563e-14  1.3995819120749502e-14  1.4017850862370467e-14  1.4039881220485025e-14  1.4061910192918862e-14  1.4083937777497805e-14  1.4105963972047817e-14  1.4127988774394996e-14  1.4150012182365591e-14  1.4172034193785975e-14  1.4194054806482661e-14  1.4216074018282304e-14  1.4238091827011690e-14  1.4260108230497754e-14  1.4282123226567563e-14  1.4304136813048324e-14  1.4326148987767377e-14  1.4348159748552218e-14  1.4370169093230463e-14  1.4392177019629881e-14  1.4414183525578370e-14  1.4436188608903975e-14  1.4458192267434891e-14  1.4480194498999439e-14  1.4502195301426084e-14  1.4524194672543440e-14  1.4546192610180249e-14  1.4568189112165405e-14  1.4590184176327943e-14  1.4612177800497029e-14  1.4634169982501983e-14  1.4656160720172266e-14  1.4678150011337483e-14  1.4700137853827375e-14  1.4722124245471828e-14  1.4744109184100872e-14  1.4766092667544678e-14  1.4788074693633566e-14  1.4810055260197999e-14  1.4832034365068581e-14  1.4854012006076057e-14  1.4875988181051320e-14  1.4897962887825417e-14  1.4919936124229522e-14  1.4941907888094967e-14  1.4963878177253227e-14  1.4985846989535919e-14  1.5007814322774812e-14  1.5029780174801819e-14  1.5051744543448992e-14  1.5073707426548534e-14  1.5095668821932801e-14  1.5117628727434286e-14  1.5139587140885630e-14  1.5161544060119631e-14  1.5183499482969224e-14  1.5205453407267498e-14  1.5227405830847688e-14  1.5249356751543181e-14  1.5271306167187500e-14  1.5293254075614329e-14  1.5315200474657494e-14  1.5337145362150972e-14  1.5359088735928891e-14  1.5381030593825526e-14  1.5402970933675302e-14  1.5424909753312799e-14  1.5446847050572739e-14  1.5468782823289996e-14  1.5490717069299593e-14  1.5512649786436708e-14  1.5534580972536675e-14  1.5556510625434967e-14  1.5578438742967217e-14  1.5600365322969208e-14  1.5622290363276864e-14  1.5644213861726279e-14  1.5666135816153690e-14  1.5688056224395483e-14  1.5709975084288196e-14  1.5731892393668533e-14  1.5753808150373339e-14  1.5775722352239619e-14  1.5797634997104526e-14  1.5819546082805368e-14  1.5841455607179611e-14  1.5863363568064867e-14  1.5885269963298911e-14  1.5907174790719660e-14  1.5929078048165200e-14  1.5950979733473767e-14  1.5972879844483752e-14  1.5994778379033703e-14  1.6016675334962312e-14  1.6038570710108434e-14  1.6060464502311096e-14  1.6082356709409458e-14  1.6104247329242851e-14  1.6126136359650754e-14  1.6148023798472805e-14  1.6169909643548810e-14  1.6191793892718713e-14  1.6213676543822632e-14  1.6235557594700827e-14  1.6257437043193728e-14  1.6279314887141919e-14  1.6301191124386149e-14  1.6323065752767317e-14  1.6344938770126482e-14  1.6366810174304863e-14  1.6388679963143848e-14  1.6410548134484971e-14  1.6432414686169924e-14  1.6454279616040566e-14  1.6476142921938925e-14  1.6498004601707173e-14  1.6519864653187641e-14  1.6541723074222837e-14  1.6563579862655423e-14  1.6585435016328215e-14  1.6607288533084199e-14  1.6629140410766523e-14  1.6650990647218480e-14  1.6672839240283548e-14  1.6694686187805357e-14  1.6716531487627698e-14  1.6738375137594532e-14  1.6760217135549964e-14  1.6782057479338282e-14  1.6803896166803939e-14  1.6825733195791532e-14  1.6847568564145834e-14  1.6869402269711779e-14  1.6891234310334469e-14  1.6913064683859172e-14  1.6934893388131313e-14  1.6956720420996491e-14  1.6978545780300459e-14  1.7000369463889135e-14  1.7022191469608622e-14  1.7044011795305166e-14  1.7065830438825184e-14  1.7087647398015264e-14  1.7109462670722167e-14  1.7131276254792804e-14  1.7153088148074263e-14  1.7174898348413791e-14  1.7196706853658806e-14  1.7218513661656905e-14  1.7240318770255836e-14  1.7262122177303519e-14  1.7283923880648050e-14  1.7305723878137683e-14  1.7327522167620852e-14  1.7349318746946144e-14  1.7371113613962325e-14  1.7392906766518329e-14  1.7414698202463258e-14  1.7436487919646383e-14  1.7458275915917143e-14  1.7480062189125155e-14  1.7501846737120191e-14  1.7523629557752204e-14  1.7545410648871319e-14  1.7567190008327827e-14  1.7588967633972191e-14  1.7610743523655044e-14  1.7632517675227194e-14  1.7654290086539622e-14  1.7676060755443476e-14  1.7697829679790074e-14  1.7719596857430916e-14  1.7741362286217662e-14  1.7763125964002154e-14  1.7784887888636397e-14  1.7806648057972580e-14  1.7828406469863060e-14  1.7850163122160368e-14  1.7871918012717207e-14  1.7893671139386457e-14  1.7915422500021168e-14  1.7937172092474565e-14  1.7958919914600057e-14  1.7980665964251212e-14  1.8002410239281781e-14  1.8024152737545695e-14  1.8045893456897051e-14  1.8067632395190128e-14  1.8089369550279383e-14  1.8111104920019435e-14  1.8132838502265095e-14  1.8154570294871342e-14  1.8176300295693342e-14  1.8198028502586425e-14  1.8219754913406104e-14  1.8241479526008064e-14  1.8263202338248170e-14  1.8284923347982473e-14  1.8306642553067195e-14  1.8328359951358730e-14  1.8350075540713665e-14  1.8371789318988745e-14  1.8393501284040916e-14  1.8415211433727293e