<?xml version="1.0"?>
<VTKFile type="UnstructuredGrid"  version="0.1"  >
<UnstructuredGrid>
<Piece  NumberOfPoints="20001" NumberOfCells="20000">
<Points>
<DataArray  type="Float64"  NumberOfComponents="3"  format="ascii">0 0 0  5e-05 0 0  0.0001 0 0  0.00015 0 0  0.0002 0 0  0.00025 0 0  0.0003 0 0  0.00035 0 0  0.0004 0 0  0.00045 0 0  0.0005 0 0  0.00055 0 0  0.0005999999999999999 0 0  0.00065 0 0  0.0007 0 0  0.00075 0 0  0.0008 0 0  0.00085 0 0  0.0009 0 0  0.00095 0 0  0.001 0 0  0.00105 0 0  0.0011 0 0  0.00115 0 0  0.0012 0 0  0.00125 0 0  0.0013 0 0  0.00135 0 0  0.0014 0 0  0.00145 0 0  0.0015 0 0  0.00155 0 0  0.0016 0 0  0.00165 0 0  0.0017 0 0  0.00175 0 0  0.0018 0 0  0.00185 0 0  0.0019 0 0  0.00195 0 0  0.002 0 0  0.00205 0 0  0.0021 0 0  0.00215 0 0  0.0022 0 0  0.00225 0 0  0.0023 0 0  0.00235 0 0  0.0024 0 0  0.00245 0 0  0.0025 0 0  0.00255 0 0  0.0026 0 0  0.00265 0 0  0.0027 0 0  0.00275 0 0  0.0028 0 0  0.00285 0 0  0.0029 0 0  0.00295 0 0  0.003 0 0  0.00305 0 0  0.0031 0 0  0.00315 0 0  0.0032 0 0  0.00325 0 0  0.0033 0 0  0.00335 0 0  0.0034 0 0  0.00345 0 0  0.0035 0 0  0.00355 0 0  0.0036 0 0  0.00365 0 0  0.0037 0 0  0.00375 0 0  0.0038 0 0  0.00385 0 0  0.0039 0 0  0.00395 0 0  0.004 0 0  0.00405 0 0  0.0041 0 0  0.00415 0 0  0.0042 0 0  0.00425 0 0  0.0043 0 0  0.00435 0 0  0.0044 0 0  0.00445 0 0  0.0045 0 0  0.00455 0 0  0.0046 0 0  0.00465 0 0  0.0047 0 0  0.00475 0 0  0.0048 0 0  0.00485 0 0  0.0049 0 0  0.00495 0 0  0.005 0 0  0.00505 0 0  0.0051 0 0  0.00515 0 0  0.0052 0 0  0.00525 0 0  0.0053 0 0  0.00535 0 0  0.0054 0 0  0.00545 0 0  0.0055 0 0  0.00555 0 0  0.0056 0 0  0.00565 0 0  0.0057 0 0  0.00575 0 0  0.0058 0 0  0.00585 0 0  0.0059 0 0  0.00595 0 0  0.006 0 0  0.00605 0 0  0.0061 0 0  0.00615 0 0  0.0062 0 0  0.00625 0 0  0.0063 0 0  0.00635 0 0  0.0064 0 0  0.00645 0 0  0.0065 0 0  0.00655 0 0  0.0066 0 0  0.00665 0 0  0.0067 0 0  0.00675 0 0  0.0068 0 0  0.00685 0 0  0.0069 0 0  0.00695 0 0  0.007 0 0  0.00705 0 0  0.0071 0 0  0.00715 0 0  0.0072 0 0  0.00725 0 0  0.0073 0 0  0.00735 0 0  0.0074 0 0  0.00745 0 0  0.0075 0 0  0.00755 0 0  0.0076 0 0  0.00765 0 0  0.0077 0 0  0.00775 0 0  0.0078 0 0  0.007849999999999999 0 0  0.007900000000000001 0 0  0.00795 0 0  0.008 0 0  0.00805 0 0  0.0081 0 0  0.008149999999999999 0 0  0.008200000000000001 0 0  0.00825 0 0  0.0083 0 0  0.00835 0 0  0.008399999999999999 0 0  0.008449999999999999 0 0  0.008500000000000001 0 0  0.00855 0 0  0.0086 0 0  0.00865 0 0  0.008699999999999999 0 0  0.008750000000000001 0 0  0.008800000000000001 0 0  0.00885 0 0  0.0089 0 0  0.00895 0 0  0.008999999999999999 0 0  0.009050000000000001 0 0  0.0091 0 0  0.00915 0 0  0.0092 0 0  0.00925 0 0  0.009299999999999999 0 0  0.009350000000000001 0 0  0.0094 0 0  0.00945 0 0  0.0095 0 0  0.009549999999999999 0 0  0.009599999999999999 0 0  0.009650000000000001 0 0  0.0097 0 0  0.00975 0 0  0.0098 0 0  0.009849999999999999 0 0  0.009900000000000001 0 0  0.009950000000000001 0 0  0.01 0 0  0.01005 0 0  0.0101 0 0  0.01015 0 0  0.0102 0 0  0.01025 0 0  0.0103 0 0  0.01035 0 0  0.0104 0 0  0.01045 0 0  0.0105 0 0  0.01055 0 0  0.0106 0 0  0.01065 0 0  0.0107 0 0  0.01075 0 0  0.0108 0 0  0.01085 0 0  0.0109 0 0  0.01095 0 0  0.011 0 0  0.01105 0 0  0.0111 0 0  0.01115 0 0  0.0112 0 0  0.01125 0 0  0.0113 0 0  0.01135 0 0  0.0114 0 0  0.01145 0 0  0.0115 0 0  0.01155 0 0  0.0116 0 0  0.01165 0 0  0.0117 0 0  0.01175 0 0  0.0118 0 0  0.01185 0 0  0.0119 0 0  0.01195 0 0  0.012 0 0  0.01205 0 0  0.0121 0 0  0.01215 0 0  0.0122 0 0  0.01225 0 0  0.0123 0 0  0.01235 0 0  0.0124 0 0  0.01245 0 0  0.0125 0 0  0.01255 0 0  0.0126 0 0  0.01265 0 0  0.0127 0 0  0.01275 0 0  0.0128 0 0  0.01285 0 0  0.0129 0 0  0.01295 0 0  0.013 0 0  0.01305 0 0  0.0131 0 0  0.01315 0 0  0.0132 0 0  0.01325 0 0  0.0133 0 0  0.01335 0 0  0.0134 0 0  0.01345 0 0  0.0135 0 0  0.01355 0 0  0.0136 0 0  0.01365 0 0  0.0137 0 0  0.01375 0 0  0.0138 0 0  0.01385 0 0  0.0139 0 0  0.01395 0 0  0.014 0 0  0.01405 0 0  0.0141 0 0  0.01415 0 0  0.0142 0 0  0.01425 0 0  0.0143 0 0  0.01435 0 0  0.0144 0 0  0.01445 0 0  0.0145 0 0  0.01455 0 0  0.0146 0 0  0.01465 0 0  0.0147 0 0  0.01475 0 0  0.0148 0 0  0.01485 0 0  0.0149 0 0  0.01495 0 0  0.015 0 0  0.01505 0 0  0.0151 0 0  0.01515 0 0  0.0152 0 0  0.01525 0 0  0.0153 0 0  0.01535 0 0  0.0154 0 0  0.01545 0 0  0.0155 0 0  0.01555 0 0  0.0156 0 0  0.01565 0 0  0.0157 0 0  0.01575 0 0  0.0158 0 0  0.01585 0 0  0.0159 0 0  0.01595 0 0  0.016 0 0  0.01605 0 0  0.0161 0 0  0.01615 0 0  0.0162 0 0  0.01625 0 0  0.0163 0 0  0.01635 0 0  0.0164 0 0  0.01645 0 0  0.0165 0 0  0.01655 0 0  0.0166 0 0  0.01665 0 0  0.0167 0 0  0.01675 0 0  0.0168 0 0  0.01685 0 0  0.0169 0 0  0.01695 0 0  0.017 0 0  0.01705 0 0  0.0171 0 0  0.01715 0 0  0.0172 0 0  0.01725 0 0  0.0173 0 0  0.01735 0 0  0.0174 0 0  0.01745 0 0  0.0175 0 0  0.01755 0 0  0.0176 0 0  0.01765 0 0  0.0177 0 0  0.01775 0 0  0.0178 0 0  0.01785 0 0  0.0179 0 0  0.01795 0 0  0.018 0 0  0.01805 0 0  0.0181 0 0  0.01815 0 0  0.0182 0 0  0.01825 0 0  0.0183 0 0  0.01835 0 0  0.0184 0 0  0.01845 0 0  0.0185 0 0  0.01855 0 0  0.0186 0 0  0.01865 0 0  0.0187 0 0  0.01875 0 0  0.0188 0 0  0.01885 0 0  0.0189 0 0  0.01895 0 0  0.019 0 0  0.01905 0 0  0.0191 0 0  0.01915 0 0  0.0192 0 0  0.01925 0 0  0.0193 0 0  0.01935 0 0  0.0194 0 0  0.01945 0 0  0.0195 0 0  0.01955 0 0  0.0196 0 0  0.01965 0 0  0.0197 0 0  0.01975 0 0  0.0198 0 0  0.01985 0 0  0.0199 0 0  0.01995 0 0  0.02 0 0  0.02005 0 0  0.0201 0 0  0.02015 0 0  0.0202 0 0  0.02025 0 0  0.0203 0 0  0.02035 0 0  0.0204 0 0  0.02045 0 0  0.0205 0 0  0.02055 0 0  0.0206 0 0  0.02065 0 0  0.0207 0 0  0.02075 0 0  0.0208 0 0  0.02085 0 0  0.0209 0 0  0.02095 0 0  0.021 0 0  0.02105 0 0  0.0211 0 0  0.02115 0 0  0.0212 0 0  0.02125 0 0  0.0213 0 0  0.02135 0 0  0.0214 0 0  0.02145 0 0  0.0215 0 0  0.02155 0 0  0.0216 0 0  0.02165 0 0  0.0217 0 0  0.02175 0 0  0.0218 0 0  0.02185 0 0  0.0219 0 0  0.02195 0 0  0.022 0 0  0.02205 0 0  0.0221 0 0  0.02215 0 0  0.0222 0 0  0.02225 0 0  0.0223 0 0  0.02235 0 0  0.0224 0 0  0.02245 0 0  0.0225 0 0  0.02255 0 0  0.0226 0 0  0.02265 0 0  0.0227 0 0  0.02275 0 0  0.0228 0 0  0.02285 0 0  0.0229 0 0  0.02295 0 0  0.023 0 0  0.02305 0 0  0.0231 0 0  0.02315 0 0  0.0232 0 0  0.02325 0 0  0.0233 0 0  0.02335 0 0  0.0234 0 0  0.02345 0 0  0.0235 0 0  0.02355 0 0  0.0236 0 0  0.02365 0 0  0.0237 0 0  0.02375 0 0  0.0238 0 0  0.02385 0 0  0.0239 0 0  0.02395 0 0  0.024 0 0  0.02405 0 0  0.0241 0 0  0.02415 0 0  0.0242 0 0  0.02425 0 0  0.0243 0 0  0.02435 0 0  0.0244 0 0  0.02445 0 0  0.0245 0 0  0.02455 0 0  0.0246 0 0  0.02465 0 0  0.0247 0 0  0.02475 0 0  0.0248 0 0  0.02485 0 0  0.0249 0 0  0.02495 0 0  0.025 0 0  0.02505 0 0  0.0251 0 0  0.02515 0 0  0.0252 0 0  0.02525 0 0  0.0253 0 0  0.02535 0 0  0.0254 0 0  0.02545 0 0  0.0255 0 0  0.02555 0 0  0.0256 0 0  0.02565 0 0  0.0257 0 0  0.02575 0 0  0.0258 0 0  0.02585 0 0  0.0259 0 0  0.02595 0 0  0.026 0 0  0.02605 0 0  0.0261 0 0  0.02615 0 0  0.0262 0 0  0.02625 0 0  0.0263 0 0  0.02635 0 0  0.0264 0 0  0.02645 0 0  0.0265 0 0  0.02655 0 0  0.0266 0 0  0.02665 0 0  0.0267 0 0  0.02675 0 0  0.0268 0 0  0.02685 0 0  0.0269 0 0  0.02695 0 0  0.027 0 0  0.02705 0 0  0.0271 0 0  0.02715 0 0  0.0272 0 0  0.02725 0 0  0.0273 0 0  0.02735 0 0  0.0274 0 0  0.02745 0 0  0.0275 0 0  0.02755 0 0  0.0276 0 0  0.02765 0 0  0.0277 0 0  0.02775 0 0  0.0278 0 0  0.02785 0 0  0.0279 0 0  0.02795 0 0  0.028 0 0  0.02805 0 0  0.0281 0 0  0.02815 0 0  0.0282 0 0  0.02825 0 0  0.0283 0 0  0.02835 0 0  0.0284 0 0  0.02845 0 0  0.0285 0 0  0.02855 0 0  0.0286 0 0  0.02865 0 0  0.0287 0 0  0.02875 0 0  0.0288 0 0  0.02885 0 0  0.0289 0 0  0.02895 0 0  0.029 0 0  0.02905 0 0  0.0291 0 0  0.02915 0 0  0.0292 0 0  0.02925 0 0  0.0293 0 0  0.02935 0 0  0.0294 0 0  0.02945 0 0  0.0295 0 0  0.02955 0 0  0.0296 0 0  0.02965 0 0  0.0297 0 0  0.02975 0 0  0.0298 0 0  0.02985 0 0  0.0299 0 0  0.02995 0 0  0.03 0 0  0.03005 0 0  0.0301 0 0  0.03015 0 0  0.0302 0 0  0.03025 0 0  0.0303 0 0  0.03035 0 0  0.0304 0 0  0.03045 0 0  0.0305 0 0  0.03055 0 0  0.0306 0 0  0.03065 0 0  0.0307 0 0  0.03075 0 0  0.0308 0 0  0.03085 0 0  0.0309 0 0  0.03095 0 0  0.031 0 0  0.03105 0 0  0.0311 0 0  0.03115 0 0  0.0312 0 0  0.03125 0 0  0.0313 0 0  0.03135 0 0  0.0314 0 0  0.03145 0 0  0.0315 0 0  0.03155 0 0  0.0316 0 0  0.03165 0 0  0.0317 0 0  0.03175 0 0  0.0318 0 0  0.03185 0 0  0.0319 0 0  0.03195 0 0  0.032 0 0  0.03205 0 0  0.0321 0 0  0.03215 0 0  0.0322 0 0  0.03225 0 0  0.0323 0 0  0.03235 0 0  0.0324 0 0  0.03245 0 0  0.0325 0 0  0.03255 0 0  0.0326 0 0  0.03265 0 0  0.0327 0 0  0.03275 0 0  0.0328 0 0  0.03285 0 0  0.0329 0 0  0.03295 0 0  0.033 0 0  0.03305 0 0  0.0331 0 0  0.03315 0 0  0.0332 0 0  0.03325 0 0  0.0333 0 0  0.03335 0 0  0.0334 0 0  0.03345 0 0  0.0335 0 0  0.03355 0 0  0.0336 0 0  0.03365 0 0  0.0337 0 0  0.03375 0 0  0.0338 0 0  0.03385 0 0  0.0339 0 0  0.03395 0 0  0.034 0 0  0.03405 0 0  0.0341 0 0  0.03415 0 0  0.0342 0 0  0.03425 0 0  0.0343 0 0  0.03435 0 0  0.0344 0 0  0.03445 0 0  0.0345 0 0  0.03455 0 0  0.0346 0 0  0.03465 0 0  0.0347 0 0  0.03475 0 0  0.0348 0 0  0.03485 0 0  0.0349 0 0  0.03495 0 0  0.035 0 0  0.03505 0 0  0.0351 0 0  0.03515 0 0  0.0352 0 0  0.03525 0 0  0.0353 0 0  0.03535 0 0  0.0354 0 0  0.03545 0 0  0.0355 0 0  0.03555 0 0  0.0356 0 0  0.03565 0 0  0.0357 0 0  0.03575 0 0  0.0358 0 0  0.03585 0 0  0.0359 0 0  0.03595 0 0  0.036 0 0  0.03605 0 0  0.0361 0 0  0.03615 0 0  0.0362 0 0  0.03625 0 0  0.0363 0 0  0.03635 0 0  0.0364 0 0  0.03645 0 0  0.0365 0 0  0.03655 0 0  0.0366 0 0  0.03665 0 0  0.0367 0 0  0.03675 0 0  0.0368 0 0  0.03685 0 0  0.0369 0 0  0.03695 0 0  0.037 0 0  0.03705 0 0  0.0371 0 0  0.03715 0 0  0.0372 0 0  0.03725 0 0  0.0373 0 0  0.03735 0 0  0.0374 0 0  0.03745 0 0  0.0375 0 0  0.03755 0 0  0.0376 0 0  0.03765 0 0  0.0377 0 0  0.03775 0 0  0.0378 0 0  0.03785 0 0  0.0379 0 0  0.03795 0 0  0.038 0 0  0.03805 0 0  0.0381 0 0  0.0
[...]
<PointData  Scalars="f_13"> 
<DataArray  type="Float64"  Name="f_13"  format="ascii">3.4842745578673711e+107  1.4884329155643529e+103  6.4392617526787995e+102  3.8042844566508651e+102  2.5641756144277095e+102  1.8613792984681176e+102  1.4176818412830600e+102  1.1169187229830429e+102  9.0246831253444921e+101  7.4365154347134206e+101  6.2250949906234973e+101  5.2788887954511261e+101  4.5253120350931748e+101  3.9152983911782290e+101  3.4146191384944238e+101  2.9987544282464320e+101  2.6497366701011791e+101  2.3541389611208734e+101  2.1017542563873332e+101  1.8847052060164375e+101  1.6968303520384235e+101  1.5332522222183579e+101  1.3900678728539486e+101  1.2641235375334211e+101  1.1528481007899929e+101  1.0541283939491172e+101  9.6621467074244488e+100  8.8764815920830398e+100  8.1720496464635373e+100  7.5385222276752412e+100  6.9671352831259064e+100  6.4504145593672439e+100  5.9819555361790257e+100  5.5562459471992243e+100  5.1685217042923427e+100  4.8146492177333946e+100  4.4910287199372605e+100  4.1945144115108362e+100  3.9223481638646479e+100  3.6721042101547218e+100  3.4416427918054279e+100  3.2290711418551804e+100  3.0327105085805073e+100  2.8510681752299513e+100  2.6828136305663376e+100  2.5267582025165240e+100  2.3818375928055120e+100  2.2470968510324172e+100  2.1216774076037240e+100  2.0048058504104143e+100  1.8957841833214378e+100  1.7939813479582779e+100  1.6988258257638142e+100  1.6097991666164519e+100  1.5264303143793592e+100  1.4482906197764211e+100  1.3749894476184265e+100  1.3061702992793631e+100  1.2415073829375883e+100  1.1807025738490649e+100  1.1234827151330424e+100  1.0695972164875676e+100  1.0188159141277649e+100  9.7092716022977961e+99  9.2573611441225971e+99  8.8306321341431871e+99  8.4274279823282109e+99  8.0462188064419452e+99  7.6855903332490306e+99  7.3442338975696239e+99  7.0209374180787292e+99  6.7145772434796618e+99  6.4241107754587076e+99  6.1485697859279378e+99  5.8870543557251455e+99  5.6387273703648588e+99  5.4028095157951178e+99  5.1785747235559198e+99  4.9653460203819702e+99  4.7624917422507823e+99  4.5694220772379927e+99  4.3855859053831363e+99  4.2104679071584932e+99  4.0435859151278229e+99  3.8844884860316717e+99  3.7327526728837494e+99  3.5879819787463112e+99  3.4498044757035572e+99  3.3178710741991570e+99  3.1918539293711523e+99  3.0714449723262975e+99  2.9563545554646859e+99  2.8463102020106000e+99  2.7410554508410633e+99  2.6403487885421466e+99  2.5439626613752697e+99  2.4516825605115739e+99  2.3633061745000478e+99  2.2786426034820204e+99  2.1975116301574496e+99  2.1197430429530186e+99  2.0451760072433093e+99  1.9736584808390673e+99  1.9050466702846956e+99  1.8392045248041144e+99  1.7760032650034431e+99  1.7153209436830961e+99  1.6570420363335842e+99  1.6010570590908389e+99  1.5472622121099936e+99  1.4955590464833193e+99  1.4458541529799354e+99  1.3980588710233372e+99  1.3520890164490932e+99  1.3078646267004564e+99  1.2653097222249697e+99  1.2243520829315294e+99  1.1849230386555410e+99  1.1469572726605834e+99  1.1103926372789348e+99  1.0751699808612235e+99  1.0412329852676816e+99  1.0085280131906974e+99  9.7700396465084699e+98  9.4661214205690454e+98  9.1730612326477701e+98  8.8904164211119104e+98  8.6177647593564651e+98  8.3547033963889000e+98  8.1008478585817783e+98  7.8558311086914838e+98  7.6193026585144162e+98  7.3909277318037999e+98  7.1703864743034486e+98  6.9573732079703690e+98  6.7515957266575229e+98  6.5527746307126440e+98  6.3606426981201080e+98  6.1749442899714621e+98  5.9954347881970281e+98  5.8218800636276302e+98  5.6540559725819467e+98  5.4917478802925024e+98  5.3347502095927726e+98  5.1828660133891025e+98  5.0359065695359206e+98  4.8936909968202662e+98  4.7560458908436177e+98  4.6228049786651850e+98  4.4938087911416611e+98  4.3689043519646451e+98  4.2479448824586698e+98  4.1307895212601645e+98  4.0173030580515215e+98  3.9073556805744754e+98  3.8008227341938386e+98  3.6975844933263823e+98  3.5975259440906672e+98  3.5005365775716508e+98  3.4065101931298972e+98  3.3153447112185433e+98  3.2269419952026339e+98  3.1412076817047150e+98  3.0580510190281458e+98  2.9773847132353194e+98  2.8991247814821941e+98  2.8231904122331695e+98  2.7495038320016694e+98  2.6779901782817009e+98  2.6085773783544326e+98  2.5411960336714436e+98  2.4757793095328155e+98  2.4122628297937916e+98  2.3505845763483716e+98  2.2906847931518999e+98  2.2325058945576852e+98  2.1759923777548353e+98  2.1210907391059167e+98  2.0677493941939047e+98  2.0159186013979701e+98  1.9655503888272672e+98  1.9165984844509002e+98  1.8690182492707453e+98  1.8227666133917961e+98  1.7778020148523226e+98  1.7340843410832270e+98  1.6915748728727355e+98  1.6502362307189074e+98  1.6100323234584871e+98  1.5709282990662233e+98  1.5328904975242401e+98  1.4958864056660349e+98  1.4598846139044840e+98  1.4248547747577835e+98  1.3907675630915327e+98  1.3575946379991853e+98  1.3253086062469959e+98  1.2938829872131556e+98  1.2632921792542658e+98  1.2335114274355912e+98  1.2045167925645456e+98  1.1762851214698667e+98  1.1487940184716414e+98  1.1220218179899885e+98  1.0959475582427106e+98  1.0705509559845653e+98  1.0458123822430514e+98  1.0217128390077366e+98  9.9823393683215776e+97  9.7535787330925252e+97  9.5306741238307707e+97  9.3134586446131919e+97  9.1017706729472399e+97  8.8954536759113539e+97  8.6943560333330999e+97  8.4983308677108441e+97  8.3072358805981093e+97  8.1209331951823702e+97  7.9392892048022636e+97  7.7621744271586571e+97  7.5894633639859248e+97  7.4210343659601990e+97  7.2567695026313184e+97  7.0965544371745674e+97  6.9402783057673324e+97  6.7878336014044003e+97  6.6391160619736303e+97  6.4940245624216719e+97  6.3524610108466542e+97  6.2143302483618832e+97  6.0795399525813860e+97  5.9480005445843881e+97  5.8196250992220286e+97  5.6943292586354660e+97  5.5720311488600109e+97  5.4526512993952556e+97  5.3361125656263097e+97  5.2223400539859168e+97  5.1112610497520725e+97  5.0028049473799232e+97  4.8969031832710681e+97  4.7934891708874631e+97  4.6924982381207955e+97  4.5938675668319766e+97  4.4975361344789037e+97  4.4034446577539266e+97  4.3115355381557205e+97  4.2217528094232905e+97  4.1340420867627770e+97  4.0483505178004766e+97  3.9646267351982804e+97  3.8828208108701895e+97  3.8028842117410160e+97  3.7247697569908202e+97  3.6484315767307713e+97  3.5738250720583123e+97  3.5009068764415849e+97  3.4296348183849916e+97  3.3599678853296615e+97  3.2918661887444642e+97  3.2252909303648539e+97  3.1602043695385103e+97  3.0965697916383611e+97  3.0343514775050461e+97  2.9735146738823946e+97  2.9140255648108315e+97  2.8558512439449869e+97  2.7989596877630837e+97  2.7433197296368930e+97  2.6889010347322178e+97  2.6356740757110453e+97  2.5836101092075385e+97  2.5326811530511083e+97  2.4828599642107975e+97  2.4341200174362075e+97  2.3864354845710534e+97  2.3397812145163803e+97  2.2941327138212727e+97  2.2494661278797552e+97  2.2057582227133237e+97  2.1629863673193211e+97  2.1211285165660835e+97  2.0801631946164935e+97  2.0400694788622275e+97  2.0008269843516258e+97  1.9624158486947512e+97  1.9248167174297385e+97  1.8880107298352250e+97  1.8519795051740325e+97  1.8167051293539442e+97  1.7821701419918456e+97  1.7483575238680178e+97  1.7152506847578086e+97  1.6828334516284060e+97  1.6510900571888244e+97  1.6200051287816552e+97  1.5895636776055199e+97  1.5597510882575806e+97  1.5305531085857817e+97  1.5019558398409175e+97  1.4739457271188974e+97  1.4465095500839745e+97  1.4196344139639812e+97  1.3933077408089311e+97  1.3675172610046557e+97  1.3422510050334089e+97  1.3174972954736750e+97  1.2932447392316448e+97  1.2694822199971176e+97  1.2461988909167822e+97  1.2233841674781296e+97  1.2010277205974287e+97  1.1791194699054369e+97  1.1576495772247183e+97  1.1366084402326675e+97  1.1159866863045009e+97  1.0957751665307120e+97  1.0759649499036141e+97  1.0565473176678232e+97  1.0375137578296779e+97  1.0188559598207461e+97  1.0005658093107689e+97  9.8263538316549173e+96  9.6505694454502636e+96  9.4782293813849657e+96  9.3092598553087536e+96  9.1435888069806232e+96  8.9811458562633894e+96  8.8218622605252135e+96  8.6656708732119148e+96  8.5125061035553997e+96  8.3623038773846408e+96  8.2150015990064048e+96  8.0705381141244033e+96  7.9288536737660822e+96  7.7898898991876754e+96  7.6535897477287901e+96  7.5198974795887476e+96  7.3887586254978906e+96  7.2601199552576807e+96  7.1339294471246065e+96  7.0101362580132367e+96  6.8886906944948621e+96  6.7695441845689211e+96  6.6526492501846481e+96  6.5379594804917892e+96  6.4254295057992955e+96  6.3150149722218228e+96  6.2066725169944751e+96  6.1003597444367067e+96  5.9960352025470828e+96  5.8936583602108869e+96  5.7931895850033799e+96  5.6945901215719067e+96  5.5978220705805118e+96  5.5028483682013573e+96  5.4096327661375020e+96  5.3181398121623835e+96  5.2283348311614241e+96  5.1401839066618433e+96  5.0536538628371954e+96  4.9687122469733773e+96  4.8853273123834039e+96  4.8034680017585436e+96  4.7231039309438505e+96  4.6442053731263887e+96  4.5667432434247929e+96  4.4906890838693515e+96  4.4160150487617652e+96  4.3426938904043028e+96  4.2706989451884014e+96  4.2000041200328192e+96  4.1305838791619670e+96  4.0624132312151739e+96  3.9954677166780729e+96  3.9297233956272886e+96  3.8651568357800927e+96  3.8017451008409029e+96  3.7394657391365547e+96  3.6782967725328137e+96  3.6182166856244616e+96  3.5592044151917966e+96  3.5012393399164757e+96  3.4443012703497611e+96  3.3883704391265941e+96  3.3334274914189275e+96  3.2794534756220982e+96  3.2264298342680628e+96  3.1743383951595469e+96  3.1231613627194136e+96  3.0728813095495052e+96  3.0234811681936067e+96  2.9749442230991618e+96  2.9272541027725844e+96  2.8803947721232089e+96  2.8343505249908991e+96  2.7891059768526987e+96  2.7446460577038001e+96  2.7009560051083995e+96  2.6580213574161182e+96  2.6158279471396543e+96  2.5743618944896484e+96  2.5336096010626576e+96  2.4935577436784144e+96  2.4541932683625249e+96  2.4155033844709489e+96  2.3774755589526576e+96  2.3400975107469554e+96  2.3033572053121302e+96  2.2672428492820539e+96  2.2317428852475514e+96  2.1968459866594321e+96  2.1625410528500678e+96  2.1288172041706375e+96  2.0956637772410951e+96  2.0630703203100487e+96  2.0310265887218794e+96  1.9995225404883722e+96  1.9685483319623134e+96  1.9380943136104938e+96  1.9081510258837202e+96  1.8787091951813934e+96  1.8497597299083445e+96  1.8212937166216790e+96  1.7933024162653979e+96  1.7657772604906805e+96  1.7387098480597052e+96  1.7120919413309903e+96  1.6859154628242705e+96  1.6601724918629631e+96  1.6348552612923778e+96  1.6099561542717829e+96  1.5854677011385965e+96  1.5613825763429331e+96  1.5376935954508098e+96  1.5143937122143908e+96  1.4914760157076212e+96  1.4689337275257249e+96  1.4467601990470032e+96  1.4249489087554701e+96  1.4034934596228720e+96  1.3823875765486675e+96  1.3616251038566032e+96  1.3412000028465373e+96  1.3211063494002047e+96  1.3013383316396601e+96  1.2818902476371247e+96  1.2627565031750733e+96  1.2439316095553291e+96  1.2254101814560711e+96  1.2071869348355751e+96  1.1892566848816359e+96  1.1716143440056002e+96  1.1542549198799357e+96  1.1371735135183733e+96  1.1203653173975971e+96  1.1038256136195199e+96  1.0875497721132392e+96  1.0715332488757012e+96  1.0557715842502336e+96  1.0402604012420360e+96  1.0249954038697913e+96  1.0099723755525780e+96  9.9518717753125324e+95  9.8063574732353296e+95  9.6631409721199514e+95  9.5221831276425636e+95  9.3834455138457682e+95  9.2468904089619267e+95  9.1124807815367598e+95  8.9801802768463060e+95  8.8499532036008015e+95  8.7217645209287305e+95  8.5955798256348682e+95  8.4713653397262817e+95  8.3490878981998869e+95  8.2287149370860948e+95  8.1102144817425403e+95  7.9935551353923257e+95  7.8787060679014717e+95  7.7656370047899736e+95  7.6543182164715440e+95  7.5447205077166757e+95  7.4368152073343228e+95  7.3305741580671267e+95  7.2259697066955837e+95  7.1229746943465285e+95  7.0215624470013109e+95  6.9217067661994547e+95  6.8233819199333108e+95  6.7265626337295698e+95  6.6312240819136065e+95  6.5373418790524818e+95  6.4448920715729384e+95  6.3538511295502469e+95  6.2641959386645165e+95  6.1759037923205331e+95  6.0889523839277069e+95  6.0033197993367072e+95  5.9189845094292116e+95  5.8359253628576274e+95  5.7541215789314236e+95  5.6735527406469595e+95  5.5941987878577350e+95  5.5160400105819529e+95  5.4390570424445794e+95  5.3632308542508673e+95  5.2885427476885909e+95  5.2149743491563307e+95  5.1425076037148910e+95  5.0711247691594592e+95  5.0008084102097775e+95  4.9315413928158595e+95  4.8633068785768234e+95  4.7960883192704132e+95  4.7298694514908924e+95  4.6646342913929332e+95  4.6003671295394042e+95  4.5370525258507190e+95  4.4746753046536756e+95  4.4132205498277360e+95  4.3526736000465916e+95  4.2930200441131289e+95  4.2342457163857381e+95  4.1763366922941110e+95  4.1192792839426819e+95  4.0630600357997911e+95  4.0076657204709011e+95  3.9530833345539983e+95  3.8993000945755953e+95  3.8463034330055639e+95  3.7940809943491806e+95  3.7426206313148764e+95  3.6919104010559702e+95  3.6419385614850263e+95  3.5926935676592203e+95  3.5441640682352872e+95  3.4963389019926595e+95  3.4492070944233256e+95  3.4027578543871190e+95  3.3569805708310324e+95  3.3118648095712815e+95  3.2674003101368590e+95  3.2235769826732531e+95  3.1803849049051950e+95  3.1378143191571621e+95  3.0958556294305245e+95  3.0544993985361439e+95  3.0137363452813011e+95  2.9735573417099001e+95  2.9339534103948170e+95  2.8949157217813852e+95  2.8564355915809609e+95  2.8185044782135566e+95  2.7811139802986037e+95  2.7442558341928172e+95  2.7079219115742737e+95  2.6721042170717206e+95  2.6367948859382791e+95  2.6019861817686039e+95  2.5676704942586381e+95  2.5338403370071722e+95  2.5004883453582788e+95  2.4676072742839078e+95  2.4351899963057899e+95  2.4032294994558719e+95  2.3717188852745639e+95  2.3406513668459963e+95  2.3100202668695983e+95  2.2798190157672603e+95  2.2500411498253850e+95  2.2206803093711636e+95  2.1917302369823640e+95  2.1631847757300075e+95  2.1350378674532731e+95  2.1072835510660203e+95  2.0799159608942912e+95  2.0529293250441875e+95  2.0263179637995586e+95  2.0000762880488772e+95  1.9741987977407903e+95  1.9486800803677363e+95  1.9235148094771118e+95  1.8986977432094625e+95  1.8742237228631493e+95  1.8500876714850104e+95  1.8262845924864906e+95  1.8028095682847528e+95  1.7796577589683162e+95  1.7568244009867163e+95  1.7343048058637506e+95  1.7120943589338296e+95  1.6901885181010386e+95  1.6685828126204236e+95  1.6472728419011098e+95  1.6262542743308382e+95  1.6055228461214758e+95  1.5850743601751564e+95  1.5649046849706118e+95  1.5450097534693297e+95  1.5253855620411790e+95  1.5060281694090914e+95  1.4869336956124909e+95  1.4680983209890618e+95  1.4495182851745707e+95  1.4311898861203507e+95  1.4131094791281377e+95  1.3952734759019391e+95  1.3776783436165856e+95  1.3603206040027037e+95  1.3431968324477540e+95  1.3263036571128480e+95  1.3096377580650757e+95  1.2931958664250073e+95  1.2769747635291281e+95  1.2609712801069048e+95  1.2451822954722212e+95  1.2296047367289181e+95  1.2142355779901593e+95  1.1990718396113940e+95  1.1841105874366361e+95  1.1693489320578399e+95  1.1547840280871160e+95  1.1404130734415414e+95  1.1262333086403574e+95  1.1122420161143095e+95  1.0984365195269101e+95  1.0848141831074046e+95  1.0713724109952272e+95  1.0581086465957288e+95  1.0450203719469966e+95  1.0321051070975263e+95  1.0193604094945715e+95  1.0067838733829755e+95  9.9437312921427994e+94  9.8212584306594643e+94  9.7003971607048202e+94  9.5811248385431361e+94  9.4634191598620961e+94  9.3472581543509165e+94  9.2326201803707172e+94  9.1194839197152914e+94  9.0078283724608370e+94  8.8976328519028028e+94  8.7888769795787170e+94  8.6815406803748365e+94  8.5756041777157071e+94  8.4710479888347652e+94  8.3678529201246037e+94  8.2660000625656764e+94  8.1654707872317345e+94  8.0662467408708315e+94  7.9683098415605046e+94  7.8716422744357128e+94  7.7762264874884529e+94  7.6820451874375425e+94  7.5890813356674162e+94  7.4973181442348156e+94  7.4067390719418980e+94  7.3173278204749628e+94  7.2290683306073072e+94  7.1419447784652317e+94  7.0559415718560721e+94  6.9710433466570891e+94  6.8872349632642984e+94  6.8045015030999915e+94  6.7228282651780779e+94  6.6422007627261379e+94  6.5626047198631851e+94  6.4840260683322954e+94  6.4064509442869683e+94  6.3298656851303898e+94  6.2542568264066325e+94  6.1796110987428511e+94  6.1059154248417518e+94  6.0331569165232161e+94  5.9613228718144208e+94  5.8904007720874659e+94  5.8203782792438831e+94  5.7512432329449480e+94  5.6829836478872093e+94  5.6155877111224168e+94  5.5490437794209540e+94  5.4833403766782387e+94  5.4184661913631537e+94  5.3544100740078539e+94  5.2911610347383201e+94  5.2287082408447883e+94  5.1670410143915623e+94  5.1061488298653672e+94  5.0460213118616923e+94  4.9866482328084421e+94  4.9280195107261783e+94  4.8701252070245239e+94  4.8129555243338706e+94  4.7565008043719748e+94  4.7007515258447639e+94  4.6456983023807462e+94  4.5913318804985703e+94  4.5376431376070189e+94  4.4846230800370133e+94  4.4322628411050153e+94  4.3805536792072728e+94  4.3294869759445207e+94  4.2790542342764561e+94  4.2292470767055990e+94  4.1800572434899382e+94  4.1314765908840653e+94  4.0834970894080947e+94  4.0361108221440153e+94  3.9893099830590455e+94  3.9430868753554467e+94  3.8974339098464573e+94  3.8523436033577835e+94  3.8078085771543529e+94  3.7638215553917961e+94  3.7203753635923158e+94  3.6774629271445173e+94  3.6350772698267741e+94  3.5932115123537712e+94  3.5518588709458746e+94  3.5110126559207955e+94  3.4706662703073921e+94  3.4308132084810931e+94  3.3914470548206193e+94  3.3525614823856813e+94  3.3141502516152509e+94  3.2762072090461634e+94  3.2387262860515770e+94  3.2017014975990902e+94  3.1651269410281385e+94  3.1289967948463084e+94  3.0933053175443788e+94  3.0580468464296476e+94  3.0232157964773233e+94  2.9888066591996975e+94  2.9548140015327125e+94  2.9212324647397782e+94  2.8880567633324295e+94  2.8552816840076239e+94  2.8229020846013744e+94  2.7909128930584914e+94  2.7593091064181098e+94  2.7280857898147913e+94  2.6972380754949412e+94  2.6667611618482717e+94  2.6366503124541149e+94  2.6069008551422681e+94  2.5775081810682110e+94  2.5484677438024288e+94  2.5197750584335907e+94  2.4914257006854326e+94  2.4634153060470304e+94  2.4357395689163161e+94  2.4083942417566015e+94  2.3813751342658888e+94  2.3546781125588001e+94  2.3282990983608648e+94  2.3022340682150271e+94  2.2764790527001340e+94  2.2510301356612272e+94  2.2258834534514719e+94  2.2010351941854942e+94  2.1764815970039717e+94  2.1522189513493052e+94  2.1282435962521694e+94  2.1045519196287920e+94  2.0811403575887760e+94  2.0580053937533179e+94  2.0351435585836029e+94  2.0125514287193176e+94  1.9902256263270015e+94  1.9681628184581669e+94  1.9463597164169983e+94  1.9248130751374728e+94  1.9035196925697912e+94  1.8824764090759289e+94  1.8616801068341733e+94  1.8411277092525463e+94  1.8208161803908927e+94  1.8007425243915927e+94  1.7809037849186876e+94  1.7612970446053211e+94  1.7419194245093707e+94  1.7227680835771016e+94  1.7038402181147917e+94  1.6851330612681160e+94  1.6666438825092329e+94  1.6483699871314214e+94  1.6303087157511642e+94  1.6124574438175576e+94  1.5948135811289356e+94  1.5773745713565851e+94  1.5601378915754675e+94  1.5431010518017974e+94  1.5262615945374231e+94  1.5096170943208521e+94  1.4931651572848642e+94  1.4769034207205737e+94  1.4608295526478674e+94  1.4449412513921051e+94  1.4292362451669912e+94  1.4137122916635221e+94  1.3983671776449071e+94  1.3831987185473973e+94  1.3682047580868999e+94  1.3533831678712946e+94  1.3387318470183985e+94  1.3242487217794431e+94  1.3099317451680157e+94  1.2957788965943635e+94  1.2817881815049879e+94  1.2679576310274436e+94  1.2542853016202494e+94  1.2407692747278748e+94  1.2274076564406734e+94  1.2141985771597260e+94  1.2011401912664923e+94  1.1882306767972153e+94  1.1754682351220116e+94  1.1628510906285485e+94  1.1503774904102613e+94  1.1380457039590478e+94  1.1258540228623421e+94  1.1138007605045426e+94  1.1018842517726859e+94  1.0901028527663335e+94  1.07