<?xml version="1.0"?>
<VTKFile type="UnstructuredGrid"  version="0.1"  >
<UnstructuredGrid>
<Piece  NumberOfPoints="10001" NumberOfCells="10000">
<Points>
<DataArray  type="Float64"  NumberOfComponents="3"  format="ascii">0 0 0  0.0001 0 0  0.0002 0 0  0.0003 0 0  0.0004 0 0  0.0005 0 0  0.0005999999999999999 0 0  0.0007 0 0  0.0008 0 0  0.0009 0 0  0.001 0 0  0.0011 0 0  0.0012 0 0  0.0013 0 0  0.0014 0 0  0.0015 0 0  0.0016 0 0  0.0017 0 0  0.0018 0 0  0.0019 0 0  0.002 0 0  0.0021 0 0  0.0022 0 0  0.0023 0 0  0.0024 0 0  0.0025 0 0  0.0026 0 0  0.0027 0 0  0.0028 0 0  0.0029 0 0  0.003 0 0  0.0031 0 0  0.0032 0 0  0.0033 0 0  0.0034 0 0  0.0035 0 0  0.0036 0 0  0.0037 0 0  0.0038 0 0  0.0039 0 0  0.004 0 0  0.0041 0 0  0.0042 0 0  0.0043 0 0  0.0044 0 0  0.0045 0 0  0.0046 0 0  0.0047 0 0  0.0048 0 0  0.0049 0 0  0.005 0 0  0.0051 0 0  0.0052 0 0  0.0053 0 0  0.0054 0 0  0.0055 0 0  0.0056 0 0  0.0057 0 0  0.0058 0 0  0.0059 0 0  0.006 0 0  0.0061 0 0  0.0062 0 0  0.0063 0 0  0.0064 0 0  0.0065 0 0  0.0066 0 0  0.0067 0 0  0.0068 0 0  0.0069 0 0  0.007 0 0  0.0071 0 0  0.0072 0 0  0.0073 0 0  0.0074 0 0  0.0075 0 0  0.0076 0 0  0.0077 0 0  0.0078 0 0  0.007900000000000001 0 0  0.008 0 0  0.0081 0 0  0.008200000000000001 0 0  0.0083 0 0  0.008399999999999999 0 0  0.008500000000000001 0 0  0.0086 0 0  0.008699999999999999 0 0  0.008800000000000001 0 0  0.0089 0 0  0.008999999999999999 0 0  0.0091 0 0  0.0092 0 0  0.009299999999999999 0 0  0.0094 0 0  0.0095 0 0  0.009599999999999999 0 0  0.0097 0 0  0.0098 0 0  0.009900000000000001 0 0  0.01 0 0  0.0101 0 0  0.0102 0 0  0.0103 0 0  0.0104 0 0  0.0105 0 0  0.0106 0 0  0.0107 0 0  0.0108 0 0  0.0109 0 0  0.011 0 0  0.0111 0 0  0.0112 0 0  0.0113 0 0  0.0114 0 0  0.0115 0 0  0.0116 0 0  0.0117 0 0  0.0118 0 0  0.0119 0 0  0.012 0 0  0.0121 0 0  0.0122 0 0  0.0123 0 0  0.0124 0 0  0.0125 0 0  0.0126 0 0  0.0127 0 0  0.0128 0 0  0.0129 0 0  0.013 0 0  0.0131 0 0  0.0132 0 0  0.0133 0 0  0.0134 0 0  0.0135 0 0  0.0136 0 0  0.0137 0 0  0.0138 0 0  0.0139 0 0  0.014 0 0  0.0141 0 0  0.0142 0 0  0.0143 0 0  0.0144 0 0  0.0145 0 0  0.0146 0 0  0.0147 0 0  0.0148 0 0  0.0149 0 0  0.015 0 0  0.0151 0 0  0.0152 0 0  0.0153 0 0  0.0154 0 0  0.0155 0 0  0.0156 0 0  0.0157 0 0  0.0158 0 0  0.0159 0 0  0.016 0 0  0.0161 0 0  0.0162 0 0  0.0163 0 0  0.0164 0 0  0.0165 0 0  0.0166 0 0  0.0167 0 0  0.0168 0 0  0.0169 0 0  0.017 0 0  0.0171 0 0  0.0172 0 0  0.0173 0 0  0.0174 0 0  0.0175 0 0  0.0176 0 0  0.0177 0 0  0.0178 0 0  0.0179 0 0  0.018 0 0  0.0181 0 0  0.0182 0 0  0.0183 0 0  0.0184 0 0  0.0185 0 0  0.0186 0 0  0.0187 0 0  0.0188 0 0  0.0189 0 0  0.019 0 0  0.0191 0 0  0.0192 0 0  0.0193 0 0  0.0194 0 0  0.0195 0 0  0.0196 0 0  0.0197 0 0  0.0198 0 0  0.0199 0 0  0.02 0 0  0.0201 0 0  0.0202 0 0  0.0203 0 0  0.0204 0 0  0.0205 0 0  0.0206 0 0  0.0207 0 0  0.0208 0 0  0.0209 0 0  0.021 0 0  0.0211 0 0  0.0212 0 0  0.0213 0 0  0.0214 0 0  0.0215 0 0  0.0216 0 0  0.0217 0 0  0.0218 0 0  0.0219 0 0  0.022 0 0  0.0221 0 0  0.0222 0 0  0.0223 0 0  0.0224 0 0  0.0225 0 0  0.0226 0 0  0.0227 0 0  0.0228 0 0  0.0229 0 0  0.023 0 0  0.0231 0 0  0.0232 0 0  0.0233 0 0  0.0234 0 0  0.0235 0 0  0.0236 0 0  0.0237 0 0  0.0238 0 0  0.0239 0 0  0.024 0 0  0.0241 0 0  0.0242 0 0  0.0243 0 0  0.0244 0 0  0.0245 0 0  0.0246 0 0  0.0247 0 0  0.0248 0 0  0.0249 0 0  0.025 0 0  0.0251 0 0  0.0252 0 0  0.0253 0 0  0.0254 0 0  0.0255 0 0  0.0256 0 0  0.0257 0 0  0.0258 0 0  0.0259 0 0  0.026 0 0  0.0261 0 0  0.0262 0 0  0.0263 0 0  0.0264 0 0  0.0265 0 0  0.0266 0 0  0.0267 0 0  0.0268 0 0  0.0269 0 0  0.027 0 0  0.0271 0 0  0.0272 0 0  0.0273 0 0  0.0274 0 0  0.0275 0 0  0.0276 0 0  0.0277 0 0  0.0278 0 0  0.0279 0 0  0.028 0 0  0.0281 0 0  0.0282 0 0  0.0283 0 0  0.0284 0 0  0.0285 0 0  0.0286 0 0  0.0287 0 0  0.0288 0 0  0.0289 0 0  0.029 0 0  0.0291 0 0  0.0292 0 0  0.0293 0 0  0.0294 0 0  0.0295 0 0  0.0296 0 0  0.0297 0 0  0.0298 0 0  0.0299 0 0  0.03 0 0  0.0301 0 0  0.0302 0 0  0.0303 0 0  0.0304 0 0  0.0305 0 0  0.0306 0 0  0.0307 0 0  0.0308 0 0  0.0309 0 0  0.031 0 0  0.0311 0 0  0.0312 0 0  0.0313 0 0  0.0314 0 0  0.0315 0 0  0.0316 0 0  0.0317 0 0  0.0318 0 0  0.0319 0 0  0.032 0 0  0.0321 0 0  0.0322 0 0  0.0323 0 0  0.0324 0 0  0.0325 0 0  0.0326 0 0  0.0327 0 0  0.0328 0 0  0.0329 0 0  0.033 0 0  0.0331 0 0  0.0332 0 0  0.0333 0 0  0.0334 0 0  0.0335 0 0  0.0336 0 0  0.0337 0 0  0.0338 0 0  0.0339 0 0  0.034 0 0  0.0341 0 0  0.0342 0 0  0.0343 0 0  0.0344 0 0  0.0345 0 0  0.0346 0 0  0.0347 0 0  0.0348 0 0  0.0349 0 0  0.035 0 0  0.0351 0 0  0.0352 0 0  0.0353 0 0  0.0354 0 0  0.0355 0 0  0.0356 0 0  0.0357 0 0  0.0358 0 0  0.0359 0 0  0.036 0 0  0.0361 0 0  0.0362 0 0  0.0363 0 0  0.0364 0 0  0.0365 0 0  0.0366 0 0  0.0367 0 0  0.0368 0 0  0.0369 0 0  0.037 0 0  0.0371 0 0  0.0372 0 0  0.0373 0 0  0.0374 0 0  0.0375 0 0  0.0376 0 0  0.0377 0 0  0.0378 0 0  0.0379 0 0  0.038 0 0  0.0381 0 0  0.0382 0 0  0.0383 0 0  0.0384 0 0  0.0385 0 0  0.0386 0 0  0.0387 0 0  0.0388 0 0  0.0389 0 0  0.039 0 0  0.0391 0 0  0.0392 0 0  0.0393 0 0  0.0394 0 0  0.0395 0 0  0.0396 0 0  0.0397 0 0  0.0398 0 0  0.0399 0 0  0.04 0 0  0.0401 0 0  0.0402 0 0  0.0403 0 0  0.0404 0 0  0.0405 0 0  0.0406 0 0  0.0407 0 0  0.0408 0 0  0.0409 0 0  0.041 0 0  0.0411 0 0  0.0412 0 0  0.0413 0 0  0.0414 0 0  0.0415 0 0  0.0416 0 0  0.0417 0 0  0.0418 0 0  0.0419 0 0  0.042 0 0  0.0421 0 0  0.0422 0 0  0.0423 0 0  0.0424 0 0  0.0425 0 0  0.0426 0 0  0.0427 0 0  0.0428 0 0  0.0429 0 0  0.043 0 0  0.0431 0 0  0.0432 0 0  0.0433 0 0  0.0434 0 0  0.0435 0 0  0.0436 0 0  0.0437 0 0  0.0438 0 0  0.0439 0 0  0.044 0 0  0.0441 0 0  0.0442 0 0  0.0443 0 0  0.0444 0 0  0.0445 0 0  0.0446 0 0  0.0447 0 0  0.0448 0 0  0.0449 0 0  0.045 0 0  0.0451 0 0  0.0452 0 0  0.0453 0 0  0.0454 0 0  0.0455 0 0  0.0456 0 0  0.0457 0 0  0.0458 0 0  0.0459 0 0  0.046 0 0  0.0461 0 0  0.0462 0 0  0.0463 0 0  0.0464 0 0  0.0465 0 0  0.0466 0 0  0.0467 0 0  0.0468 0 0  0.0469 0 0  0.047 0 0  0.0471 0 0  0.0472 0 0  0.0473 0 0  0.0474 0 0  0.0475 0 0  0.0476 0 0  0.0477 0 0  0.0478 0 0  0.0479 0 0  0.048 0 0  0.0481 0 0  0.0482 0 0  0.0483 0 0  0.0484 0 0  0.0485 0 0  0.0486 0 0  0.0487 0 0  0.0488 0 0  0.0489 0 0  0.049 0 0  0.0491 0 0  0.0492 0 0  0.0493 0 0  0.0494 0 0  0.0495 0 0  0.0496 0 0  0.0497 0 0  0.0498 0 0  0.0499 0 0  0.05 0 0  0.0501 0 0  0.0502 0 0  0.0503 0 0  0.0504 0 0  0.0505 0 0  0.0506 0 0  0.0507 0 0  0.0508 0 0  0.0509 0 0  0.051 0 0  0.0511 0 0  0.0512 0 0  0.0513 0 0  0.0514 0 0  0.0515 0 0  0.0516 0 0  0.0517 0 0  0.0518 0 0  0.0519 0 0  0.052 0 0  0.0521 0 0  0.0522 0 0  0.0523 0 0  0.0524 0 0  0.0525 0 0  0.0526 0 0  0.0527 0 0  0.0528 0 0  0.0529 0 0  0.053 0 0  0.0531 0 0  0.0532 0 0  0.0533 0 0  0.0534 0 0  0.0535 0 0  0.0536 0 0  0.0537 0 0  0.0538 0 0  0.0539 0 0  0.054 0 0  0.0541 0 0  0.0542 0 0  0.0543 0 0  0.0544 0 0  0.0545 0 0  0.0546 0 0  0.0547 0 0  0.0548 0 0  0.0549 0 0  0.055 0 0  0.0551 0 0  0.0552 0 0  0.0553 0 0  0.0554 0 0  0.0555 0 0  0.0556 0 0  0.0557 0 0  0.0558 0 0  0.0559 0 0  0.056 0 0  0.0561 0 0  0.0562 0 0  0.0563 0 0  0.0564 0 0  0.0565 0 0  0.0566 0 0  0.0567 0 0  0.0568 0 0  0.0569 0 0  0.057 0 0  0.0571 0 0  0.0572 0 0  0.0573 0 0  0.0574 0 0  0.0575 0 0  0.0576 0 0  0.0577 0 0  0.0578 0 0  0.0579 0 0  0.058 0 0  0.0581 0 0  0.0582 0 0  0.0583 0 0  0.0584 0 0  0.0585 0 0  0.0586 0 0  0.0587 0 0  0.0588 0 0  0.0589 0 0  0.059 0 0  0.0591 0 0  0.0592 0 0  0.0593 0 0  0.0594 0 0  0.0595 0 0  0.0596 0 0  0.0597 0 0  0.0598 0 0  0.0599 0 0  0.06 0 0  0.0601 0 0  0.0602 0 0  0.0603 0 0  0.0604 0 0  0.0605 0 0  0.0606 0 0  0.0607 0 0  0.0608 0 0  0.0609 0 0  0.061 0 0  0.0611 0 0  0.0612 0 0  0.0613 0 0  0.0614 0 0  0.0615 0 0  0.0616 0 0  0.0617 0 0  0.0618 0 0  0.0619 0 0  0.062 0 0  0.0621 0 0  0.0622 0 0  0.0623 0 0  0.0624 0 0  0.0625 0 0  0.0626 0 0  0.06270000000000001 0 0  0.06279999999999999 0 0  0.0629 0 0  0.063 0 0  0.0631 0 0  0.06320000000000001 0 0  0.0633 0 0  0.0634 0 0  0.0635 0 0  0.0636 0 0  0.06370000000000001 0 0  0.0638 0 0  0.0639 0 0  0.064 0 0  0.0641 0 0  0.06419999999999999 0 0  0.0643 0 0  0.0644 0 0  0.0645 0 0  0.0646 0 0  0.06469999999999999 0 0  0.0648 0 0  0.0649 0 0  0.065 0 0  0.06510000000000001 0 0  0.06519999999999999 0 0  0.0653 0 0  0.0654 0 0  0.0655 0 0  0.06560000000000001 0 0  0.06569999999999999 0 0  0.0658 0 0  0.0659 0 0  0.066 0 0  0.06610000000000001 0 0  0.06619999999999999 0 0  0.0663 0 0  0.0664 0 0  0.0665 0 0  0.06660000000000001 0 0  0.0667 0 0  0.0668 0 0  0.0669 0 0  0.067 0 0  0.06710000000000001 0 0  0.0672 0 0  0.0673 0 0  0.0674 0 0  0.0675 0 0  0.06759999999999999 0 0  0.0677 0 0  0.0678 0 0  0.0679 0 0  0.068 0 0  0.06809999999999999 0 0  0.0682 0 0  0.0683 0 0  0.0684 0 0  0.06850000000000001 0 0  0.06859999999999999 0 0  0.0687 0 0  0.0688 0 0  0.0689 0 0  0.06900000000000001 0 0  0.06909999999999999 0 0  0.0692 0 0  0.0693 0 0  0.0694 0 0  0.06950000000000001 0 0  0.0696 0 0  0.0697 0 0  0.0698 0 0  0.0699 0 0  0.07000000000000001 0 0  0.0701 0 0  0.0702 0 0  0.0703 0 0  0.0704 0 0  0.07049999999999999 0 0  0.0706 0 0  0.0707 0 0  0.0708 0 0  0.0709 0 0  0.07099999999999999 0 0  0.0711 0 0  0.0712 0 0  0.0713 0 0  0.07140000000000001 0 0  0.07149999999999999 0 0  0.0716 0 0  0.0717 0 0  0.0718 0 0  0.07190000000000001 0 0  0.07199999999999999 0 0  0.0721 0 0  0.0722 0 0  0.0723 0 0  0.07240000000000001 0 0  0.0725 0 0  0.0726 0 0  0.0727 0 0  0.0728 0 0  0.07290000000000001 0 0  0.073 0 0  0.0731 0 0  0.0732 0 0  0.0733 0 0  0.07340000000000001 0 0  0.0735 0 0  0.0736 0 0  0.0737 0 0  0.0738 0 0  0.07389999999999999 0 0  0.074 0 0  0.0741 0 0  0.0742 0 0  0.0743 0 0  0.07439999999999999 0 0  0.0745 0 0  0.0746 0 0  0.0747 0 0  0.07480000000000001 0 0  0.07489999999999999 0 0  0.075 0 0  0.0751 0 0  0.0752 0 0  0.07530000000000001 0 0  0.07539999999999999 0 0  0.0755 0 0  0.0756 0 0  0.0757 0 0  0.07580000000000001 0 0  0.0759 0 0  0.076 0 0  0.0761 0 0  0.0762 0 0  0.07630000000000001 0 0  0.0764 0 0  0.0765 0 0  0.0766
[...]
<PointData  Scalars="f_18"> 
<DataArray  type="Float64"  Name="f_18"  format="ascii">0.0000000000000000e+00  1.5027743108964823e-21  3.0055484734750868e-21  4.5083223394179478e-21  6.0110957604072329e-21  7.5138685881251495e-21  9.0166406742539677e-21  1.0519411870476031e-20  1.2022182028473764e-20  1.3524950999929702e-20  1.5027718636526494e-20  1.6530484789946923e-20  1.8033249311873905e-20  1.9536012053990532e-20  2.1038772867980071e-20  2.2541531605525978e-20  2.4044288118311905e-20  2.5547042258021724e-20  2.7049793876339560e-20  2.8552542824949768e-20  3.0055288955536985e-20  3.1558032119786114e-20  3.3060772169382348e-20  3.4563508956011184e-20  3.6066242331358453e-20  3.7568972147110324e-20  3.9071698254953299e-20  4.0574420506574255e-20  4.2077138753660464e-20  4.3579852847899576e-20  4.5082562640979656e-20  4.6585267984589196e-20  4.8087968730417134e-20  4.9590664730152822e-20  5.1093355835486133e-20  5.2596041898107393e-20  5.4098722769707442e-20  5.5601398301977638e-20  5.7104068346609819e-20  5.8606732755296401e-20  6.0109391379730368e-20  6.1612044071605242e-20  6.3114690682615150e-20  6.4617331064454855e-20  6.6119965068819651e-20  6.7622592547405541e-20  6.9125213351909118e-20  7.0627827334027651e-20  7.2130434345459055e-20  7.3633034237902020e-20  7.5135626863055858e-20  7.6638212072620606e-20  7.8140789718297070e-20  7.9643359651786791e-20  8.1145921724792032e-20  8.2648475789015873e-20  8.4151021696162226e-20  8.5653559297935703e-20  8.7156088446041754e-20  8.8658608992186773e-20  9.0161120788077860e-20  9.1663623685423068e-20  9.3166117535931316e-20  9.4668602191312403e-20  9.6171077503277017e-20  9.7673543323536809e-20  9.9175999503804360e-20  1.0067844589579316e-19  1.0218088235121770e-19  1.0368330872179348e-19  1.0518572485923695e-19  1.0668813061526554e-19  1.0819052584159777e-19  1.0969291038995320e-19  1.1119528411205239e-19  1.1269764685961698e-19  1.1419999848436980e-19  1.1570233883803460e-19  1.1720466777233636e-19  1.1870698513900120e-19  1.2020929078975626e-19  1.2171158457632993e-19  1.2321386635045185e-19  1.2471613596385264e-19  1.2621839326826425e-19  1.2772063811541986e-19  1.2922287035705383e-19  1.3072508984490178e-19  1.3222729643070064e-19  1.3372948996618849e-19  1.3523167030310483e-19  1.3673383729319037e-19  1.3823599078818715e-19  1.3973813063983859e-19  1.4124025669988947e-19  1.4274236882008583e-19  1.4424446685217515e-19  1.4574655064790637e-19  1.4724862005902969e-19  1.4875067493729685e-19  1.5025271513446094e-19  1.5175474050227655e-19  1.5325675089249973e-19  1.5475874615688802e-19  1.5626072614720037e-19  1.5776269071519736e-19  1.5926463971264090e-19  1.6076657299129469e-19  1.6226849040292386e-19  1.6377039179929503e-19  1.6527227703217652e-19  1.6677414595333824e-19  1.6827599841455157e-19  1.6977783426758970e-19  1.7127965336422735e-19  1.7278145555624086e-19  1.7428324069540835e-19  1.7578500863350961e-19  1.7728675922232599e-19  1.7878849231364067e-19  1.8029020775923853e-19  1.8179190541090624e-19  1.8329358512043217e-19  1.8479524673960644e-19  1.8629689012022103e-19  1.8779851511406971e-19  1.8930012157294800e-19  1.9080170934865322e-19  1.9230327829298472e-19  1.9380482825774343e-19  1.9530635909473245e-19  1.9680787065575659e-19  1.9830936279262255e-19  1.9981083535713907e-19  2.0131228820111676e-19  2.0281372117636807e-19  2.0431513413470756e-19  2.0581652692795177e-19  2.0731789940791905e-19  2.0881925142642994e-19  2.1032058283530697e-19  2.1182189348637468e-19  2.1332318323145956e-19  2.1482445192239027e-19  2.1632569941099753e-19  2.1782692554911421e-19  2.1932813018857516e-19  2.2082931318121746e-19  2.2233047437888027e-19  2.2383161363340489e-19  2.2533273079663497e-19  2.2683382572041608e-19  2.2833489825659612e-19  2.2983594825702513e-19  2.3133697557355538e-19  2.3283798005804146e-19  2.3433896156234015e-19  2.3583991993831057e-19  2.3734085503781409e-19  2.3884176671271428e-19  2.4034265481487713e-19  2.4184351919617091e-19  2.4334435970846627e-19  2.4484517620363609e-19  2.4634596853355584e-19  2.4784673655010322e-19  2.4934748010515832e-19  2.5084819905060375e-19  2.5234889323832447e-19  2.5384956252020784e-19  2.5535020674814389e-19  2.5685082577402474e-19  2.5835141944974543e-19  2.5985198762720319e-19  2.6135253015829795e-19  2.6285304689493226e-19  2.6435353768901076e-19  2.6585400239244106e-19  2.6735444085713328e-19  2.6885485293499994e-19  2.7035523847795646e-19  2.7185559733792071e-19  2.7335592936681317e-19  2.7485623441655694e-19  2.7635651233907790e-19  2.7785676298630445e-19  2.7935698621016786e-19  2.8085718186260207e-19  2.8235734979554370e-19  2.8385748986093211e-19  2.8535760191070929e-19  2.8685768579682022e-19  2.8835774137121260e-19  2.8985776848583689e-19  2.9135776699264627e-19  2.9285773674359690e-19  2.9435767759064767e-19  2.9585758938576032e-19  2.9735747198089955e-19  2.9885732522803285e-19  3.0035714897913055e-19  3.0185694308616615e-19  3.0335670740111581e-19  3.0485644177595876e-19  3.0635614606267722e-19  3.0785582011325612e-19  3.0935546377968368e-19  3.1085507691395100e-19  3.1235465936805218e-19  3.1385421099398437e-19  3.1535373164374785e-19  3.1685322116934572e-19  3.1835267942278435e-19  3.1985210625607315e-19  3.2135150152122462e-19  3.2285086507025446e-19  3.2435019675518138e-19  3.2584949642802717e-19  3.2734876394081701e-19  3.2884799914557904e-19  3.3034720189434466e-19  3.3184637203914861e-19  3.3334550943202872e-19  3.3484461392502596e-19  3.3634368537018466e-19  3.3784272361955246e-19  3.3934172852518016e-19  3.4084069993912210e-19  3.4233963771343547e-19  3.4383854170018117e-19  3.4533741175142331e-19  3.4683624771922919e-19  3.4833504945566982e-19  3.4983381681281935e-19  3.5133254964275531e-19  3.5283124779755878e-19  3.5432991112931415e-19  3.5582853949010923e-19  3.5732713273203539e-19  3.5882569070718734e-19  3.6032421326766332e-19  3.6182270026556516e-19  3.6332115155299804e-19  3.6481956698207078e-19  3.6631794640489579e-19  3.6781628967358889e-19  3.6931459664026948e-19  3.7081286715706072e-19  3.7231110107608913e-19  3.7380929824948497e-19  3.7530745852938229e-19  3.7680558176791834e-19  3.7830366781723428e-19  3.7980171652947502e-19  3.8129972775678909e-19  3.8279770135132872e-19  3.8429563716524990e-19  3.8579353505071213e-19  3.8729139485987886e-19  3.8878921644491725e-19  3.9028699965799836e-19  3.9178474435129691e-19  3.9328245037699141e-19  3.9478011758726425e-19  3.9627774583430135e-19  3.9777533497029293e-19  3.9927288484743279e-19  4.0077039531791879e-19  4.0226786623395249e-19  4.0376529744773944e-19  4.0526268881148909e-19  4.0676004017741482e-19  4.0825735139773405e-19  4.0975462232466807e-19  4.1125185281044213e-19  4.1274904270728557e-19  4.1424619186743164e-19  4.1574330014311751e-19  4.1724036738658459e-19  4.1873739345007841e-19  4.2023437818584824e-19  4.2173132144614765e-19  4.2322822308323422e-19  4.2472508294936972e-19  4.2622190089682017e-19  4.2771867677785541e-19  4.2921541044474970e-19  4.3071210174978111e-19  4.3220875054523237e-19  4.3370535668339013e-19  4.3520192001654521e-19  4.3669844039699292e-19  4.3819491767703235e-19  4.3969135170896731e-19  4.4118774234510546e-19  4.4268408943775915e-19  4.4418039283924462e-19  4.4567665240188301e-19  4.4717286797799911e-19  4.4866903941992234e-19  4.5016516657998664e-19  4.5166124931053010e-19  4.5315728746389532e-19  4.5465328089242935e-19  4.5614922944848347e-19  4.5764513298441338e-19  4.5914099135257940e-19  4.6063680440534631e-19  4.6213257199508319e-19  4.6362829397416375e-19  4.6512397019496614e-19  4.6661960050987303e-19  4.6811518477127162e-19  4.6961072283155381e-19  4.7110621454311557e-19  4.7260165975835806e-19  4.7409705832968686e-19  4.7559241010951160e-19  4.7708771495024732e-19  4.7858297270431328e-19  4.8007818322413374e-19  4.8157334636213692e-19  4.8306846197075644e-19  4.8456352990243023e-19  4.8605855000960077e-19  4.8755352214471573e-19  4.8904844616022711e-19  4.9054332190859201e-19  4.9203814924227227e-19  4.9353292801373385e-19  4.9502765807544820e-19  4.9652233927989141e-19  4.9801697147954455e-19  4.9951155452689323e-19  5.0100608827442780e-19  5.0250057257464377e-19  5.0399500728004149e-19  5.0548939224312631e-19  5.0698372731640811e-19  5.0847801235240216e-19  5.0997224720362835e-19  5.1146643172261148e-19  5.1296056576188176e-19  5.1445464917397360e-19  5.1594868181142733e-19  5.1744266352678758e-19  5.1893659417260439e-19  5.2043047360143269e-19  5.2192430166583225e-19  5.2341807821836851e-19  5.2491180311161163e-19  5.2640547619813648e-19  5.2789909733052381e-19  5.2939266636135882e-19  5.3088618314323254e-19  5.3237964752874029e-19  5.3387305937048340e-19  5.3536641852106817e-19  5.3685972483310566e-19  5.3835297815921265e-19  5.3984617835201081e-19  5.4133932526412712e-19  5.4283241874819404e-19  5.4432545865684895e-19  5.4581844484273499e-19  5.4731137715850014e-19  5.4880425545679785e-19  5.5029707959028706e-19  5.5178984941163192e-19  5.5328256477350205e-19  5.5477522552857211e-19  5.5626783152952252e-19  5.5776038262903888e-19  5.5925287867981250e-19  5.6074531953453997e-19  5.6223770504592290e-19  5.6373003506666916e-19  5.6522230944949132e-19  5.6671452804710803e-19  5.6820669071224334e-19  5.6969879729762648e-19  5.7119084765599256e-19  5.7268284164008191e-19  5.7417477910264091e-19  5.7566665989642104e-19  5.7715848387417956e-19  5.7865025088867942e-19  5.8014196079268905e-19  5.8163361343898267e-19  5.8312520868034006e-19  5.8461674636954662e-19  5.8610822635939369e-19  5.8759964850267773e-19  5.8909101265220174e-19  5.9058231866077336e-19  5.9207356638120713e-19  5.9356475566632272e-19  5.9505588636894539e-19  5.9654695834190654e-19  5.9803797143804317e-19  5.9952892551019824e-19  6.0101982041122060e-19  6.0251065599396477e-19  6.0400143211129125e-19  6.0549214861606610e-19  6.0698280536116177e-19  6.0847340219945608e-19  6.0996393898383331e-19  6.1145441556718333e-19  6.1294483180240177e-19  6.1443518754239063e-19  6.1592548264005758e-19  6.1741571694831677e-19  6.1890589032008781e-19  6.2039600260829618e-19  6.2188605366587394e-19  6.2337604334575881e-19  6.2486597150089495e-19  6.2635583798423204e-19  6.2784564264872638e-19  6.2933538534734016e-19  6.3082506593304123e-19  6.3231468425880449e-19  6.3380424017761023e-19  6.3529373354244548e-19  6.3678316420630303e-19  6.3827253202218176e-19  6.3976183684308718e-19  6.4125107852203068e-19  6.4274025691203021e-19  6.4422937186610938e-19  6.4571842323729855e-19  6.4720741087863453e-19  6.4869633464315982e-19  6.5018519438392384e-19  6.5167398995398160e-19  6.5316272120639525e-19  6.5465138799423289e-19  6.5613999017056850e-19  6.5762852758848338e-19  6.5911700010106462e-19  6.6060540756140603e-19  6.6209374982260759e-19  6.6358202673777565e-19  6.6507023816002337e-19  6.6655838394247001e-19  6.6804646393824172e-19  6.6953447800047047e-19  6.7102242598229553e-19  6.7251030773686243e-19  6.7399812311732258e-19  6.7548587197683507e-19  6.7697355416856452e-19  6.7846116954568311e-19  6.7994871796136875e-19  6.8143619926880606e-19  6.8292361332118698e-19  6.8441095997170913e-19  6.8589823907357786e-19  6.8738545048000427e-19  6.8887259404420650e-19  6.9035966961940961e-19  6.9184667705884465e-19  6.9333361621575047e-19  6.9482048694337139e-19  6.9630728909495964e-19  6.9779402252377381e-19  6.9928068708307873e-19  7.0076728262614676e-19  7.0225380900625680e-19  7.0374026607669477e-19  7.0522665369075327e-19  7.0671297170173131e-19  7.0819921996293552e-19  7.0968539832767852e-19  7.1117150664928090e-19  7.1265754478106971e-19  7.1414351257637855e-19  7.1562940988854843e-19  7.1711523657092700e-19  7.1860099247686934e-19  7.2008667745973679e-19  7.2157229137289846e-19  7.2305783406973044e-19  7.2454330540361493e-19  7.2602870522794207e-19  7.2751403339610872e-19  7.2899928976151878e-19  7.3048447417758355e-19  7.3196958649772090e-19  7.3345462657535637e-19  7.3493959426392238e-19  7.3642448941685834e-19  7.3790931188761101e-19  7.3939406152963445e-19  7.4087873819638965e-19  7.4236334174134484e-19  7.4384787201797556e-19  7.4533232887976437e-19  7.4681671218020164e-19  7.4830102177278448e-19  7.4978525751101722e-19  7.5126941924841200e-19  7.5275350683848749e-19  7.5423752013477037e-19  7.5572145899079453e-19  7.5720532326010070e-19  7.5868911279623770e-19  7.6017282745276129e-19  7.6165646708323472e-19  7.6314003154122840e-19  7.6462352068032070e-19  7.6610693435409695e-19  7.6759027241614987e-19  7.6907353472008028e-19  7.7055672111949574e-19  7.7203983146801191e-19  7.7352286561925166e-19  7.7500582342684507e-19  7.7648870474443025e-19  7.7797150942565259e-19  7.7945423732416530e-19  7.8093688829362901e-19  7.8241946218771164e-19  7.8390195886008942e-19  7.8538437816444551e-19  7.8686671995447115e-19  7.8834898408386479e-19  7.8983117040633301e-19  7.9131327877559014e-19  7.9279530904535758e-19  7.9427726106936490e-19  7.9575913470134926e-19  7.9724092979505565e-19  7.9872264620423693e-19  8.0020428378265321e-19  8.0168584238407306e-19  8.0316732186227245e-19  8.0464872207103497e-19  8.0613004286415260e-19  8.0761128409542453e-19  8.0909244561865823e-19  8.1057352728766898e-19  8.1205452895627993e-19  8.1353545047832197e-19  8.1501629170763415e-19  8.1649705249806324e-19  8.1797773270346370e-19  8.1945833217769866e-19  8.2093885077463838e-19  8.2241928834816188e-19  8.2389964475215570e-19  8.2537991984051454e-19  8.2686011346714122e-19  8.2834022548594597e-19  8.2982025575084823e-19  8.3130020411577471e-19  8.3278007043466046e-19  8.3425985456144865e-19  8.3573955635008983e-19  8.3721917565454374e-19  8.3869871232877759e-19  8.4017816622676719e-19  8.4165753720249633e-19  8.4313682510995669e-19  8.4461602980314863e-19  8.4609515113608031e-19  8.4757418896276816e-19  8.4905314313723757e-19  8.5053201351352097e-19  8.5201079994566002e-19  8.5348950228770409e-19  8.5496812039371150e-19  8.5644665411774799e-19  8.5792510331388866e-19  8.5940346783621627e-19  8.6088174753882170e-19  8.6235994227580508e-19  8.6383805190127431e-19  8.6531607626934590e-19  8.6679401523414488e-19  8.6827186864980404e-19  8.6974963637046537e-19  8.7122731825027878e-19  8.7270491414340341e-19  8.7418242390400632e-19  8.7565984738626281e-19  8.7713718444435709e-19  8.7861443493248161e-19  8.8009159870483809e-19  8.8156867561563575e-19  8.8304566551909343e-19  8.8452256826943828e-19  8.8599938372090532e-19  8.8747611172773883e-19  8.8895275214419135e-19  8.9042930482452469e-19  8.9190576962300894e-19  8.9338214639392302e-19  8.9485843499155398e-19  8.9633463527019808e-19  8.9781074708416065e-19  8.9928677028775453e-19  9.0076270473530276e-19  9.0223855028113608e-19  9.0371430677959450e-19  9.0518997408502648e-19  9.0666555205178972e-19  9.0814104053425042e-19  9.0961643938678400e-19  9.1109174846377398e-19  9.1256696761961370e-19  9.1404209670870441e-19  9.1551713558545657e-19  9.1699208410429031e-19  9.1846694211963343e-19  9.1994170948592357e-19  9.2141638605760685e-19  9.2289097168913901e-19  9.2436546623498367e-19  9.2583986954961450e-19  9.2731418148751343e-19  9.2878840190317183e-19  9.3026253065108992e-19  9.3173656758577719e-19  9.3321051256175196e-19  9.3468436543354182e-19  9.3615812605568338e-19  9.3763179428272196e-19  9.3910536996921267e-19  9.4057885296971948e-19  9.4205224313881524e-19  9.4352554033108241e-19  9.4499874440111174e-19  9.4647185520350437e-19  9.4794487259287052e-19  9.4941779642382826e-19  9.5089062655100669e-19  9.5236336282904238e-19  9.5383600511258290e-19  9.5530855325628391e-19  9.5678100711481086e-19  9.5825336654283811e-19  9.5972563139505018e-19  9.6119780152613972e-19  9.6266987679080955e-19  9.6414185704377157e-19  9.6561374213974691e-19  9.6708553193346711e-19  9.6855722627967178e-19  9.7002882503311077e-19  9.7150032804854294e-19  9.7297173518073682e-19  9.7444304628447015e-19  9.7591426121453071e-19  9.7738537982571494e-19  9.7885640197282968e-19  9.8032732751069062e-19  9.8179815629412386e-19  9.8326888817796377e-19  9.8473952301705533e-19  9.8621006066625238e-19  9.8768050098041855e-19  9.8915084381442792e-19  9.9062108902316280e-19  9.9209123646151612e-19  9.9356128598438968e-19  9.9503123744669566e-19  9.9650109070335568e-19  9.9797084560930118e-19  9.9944050201947286e-19  1.0009100597888216e-18  1.0023795187723080e-18  1.0038488788249021e-18  1.0053181398015841e-18  1.0067873015573437e-18  1.0082563639471803e-18  1.0097253268261032e-18  1.0111941900491317e-18  1.0126629534712947e-18  1.0141316169476315e-18  1.0156001803331900e-18  1.0170686434830296e-18  1.0185370062522187e-18  1.0200052684958357e-18  1.0214734300689687e-18  1.0229414908267159e-18  1.0244094506241857e-18  1.0258773093164964e-18  1.0273450667587757e-18  1.0288127228061621e-18  1.0302802773138037e-18  1.0317477301368590e-18  1.0332150811304957e-18  1.0346823301498923e-18  1.0361494770502370e-18  1.0376165216867279e-18  1.0390834639145739e-18  1.0405503035889937e-18  1.0420170405652156e-18  1.0434836746984791e-18  1.0449502058440324e-18  1.0464166338571356e-18  1.0478829585930576e-18  1.0493491799070775e-18  1.0508152976544851e-18  1.0522813116905813e-18  1.0537472218706756e-18  1.0552130280500888e-18  1.0566787300841517e-18  1.0581443278282047e-18  1.0596098211375996e-18  1.0610752098676981e-18  1.0625404938738720e-18  1.0640056730115034e-18  1.0654707471359845e-18  1.0669357161027195e-18  1.0684005797671208e-18  1.0698653379846123e-18  1.0713299906106284e-18  1.0727945375006132e-18  1.0742589785100224e-18  1.0757233134943209e-18  1.0771875423089849e-18  1.0786516648095004e-18  1.0801156808513648e-18  1.0815795902900859e-18  1.0830433929811810e-18  1.0845070887801786e-18  1.0859706775426179e-18  1.0874341591240479e-18  1.0888975333800295e-18  1.0903608001661331e-18  1.0918239593379400e-18  1.0932870107510424e-18  1.0947499542610428e-18  1.0962127897235550e-18  1.0976755169942022e-18  1.0991381359286194e-18  1.1006006463824518e-18  1.1020630482113554e-18  1.1035253412709969e-18  1.1049875254170539e-18  1.1064496005052143e-18  1.1079115663911771e-18  1.1093734229306526e-18  1.1108351699793607e-18  1.1122968073930331e-18  1.1137583350274117e-18  1.1152197527382495e-18  1.1166810603813106e-18  1.1181422578123696e-18  1.1196033448872126e-18  1.1210643214616353e-18  1.1225251873914451e-18  1.1239859425324609e-18  1.1254465867405116e-18  1.1269071198714374e-18  1.1283675417810895e-18  1.1298278523253298e-18  1.1312880513600318e-18  1.1327481387410797e-18  1.1342081143243685e-18  1.1356679779658040e-18  1.1371277295213040e-18  1.1385873688467968e-18  1.1400468957982214e-18  1.1415063102315287e-18  1.1429656120026798e-18  1.1444248009676480e-18  1.1458838769824165e-18  1.1473428399029804e-18  1.1488016895853460e-18  1.1502604258855301e-18  1.1517190486595622e-18  1.1531775577634808e-18  1.1546359530533379e-18  1.1560942343851949e-18  1.1575524016151256e-18  1.1590104545992149e-18  1.1604683931935583e-18  1.1619262172542629e-18  1.1633839266374479e-18  1.1648415211992422e-18  1.1662990007957881e-18  1.1677563652832374e-18  1.1692136145177540e-18  1.1706707483555134e-18  1.1721277666527018e-18  1.1735846692655177e-18  1.1750414560501703e-18  1.1764981268628806e-18  1.1779546815598811e-18  1.1794111199974151e-18  1.1808674420317388e-18  1.1823236475191187e-18  1.1837797363158329e-18  1.1852357082781711e-18  1.1866915632624350e-18  1.1881473011249373e-18  1.1896029217220023e-18  1.1910584249099661e-18  1.1925138105451764e-18  1.1939690784839924e-18  1.1954242285827850e-18  1.1968792606979364e-18  1.1983341746858403e-18  1.1997889704029027e-18  1.2012436477055414e-18  1.2026982064501852e-18  1.2041526464932749e-18  1.2056069676912631e-18  1.2070611699006136e-18  1.2085152529778032e-18  1.2099692167793196e-18  1.2114230611616616e-18  1.2128767859813409e-18  1.2143303910948804e-18  1.2157838763588155e-18  1.2172372416296930e-18  1.2186904867640710e-18  1.2201436116185205e-18  1.2215966160496229e-18  1.2230494999139734e-18  1.2245022630681775e-18  1.2259549053688535e-18  1.2274074266726312e-18  1.2288598268361523e-18  1.2303121057160712e-18  1.2317642631690533e