<?xml version="1.0"?>
<VTKFile type="UnstructuredGrid"  version="0.1"  >
<UnstructuredGrid>
<Piece  NumberOfPoints="20001" NumberOfCells="20000">
<Points>
<DataArray  type="Float64"  NumberOfComponents="3"  format="ascii">0 0 0  5e-05 0 0  0.0001 0 0  0.00015 0 0  0.0002 0 0  0.00025 0 0  0.0003 0 0  0.00035 0 0  0.0004 0 0  0.00045 0 0  0.0005 0 0  0.00055 0 0  0.0005999999999999999 0 0  0.00065 0 0  0.0007 0 0  0.00075 0 0  0.0008 0 0  0.00085 0 0  0.0009 0 0  0.00095 0 0  0.001 0 0  0.00105 0 0  0.0011 0 0  0.00115 0 0  0.0012 0 0  0.00125 0 0  0.0013 0 0  0.00135 0 0  0.0014 0 0  0.00145 0 0  0.0015 0 0  0.00155 0 0  0.0016 0 0  0.00165 0 0  0.0017 0 0  0.00175 0 0  0.0018 0 0  0.00185 0 0  0.0019 0 0  0.00195 0 0  0.002 0 0  0.00205 0 0  0.0021 0 0  0.00215 0 0  0.0022 0 0  0.00225 0 0  0.0023 0 0  0.00235 0 0  0.0024 0 0  0.00245 0 0  0.0025 0 0  0.00255 0 0  0.0026 0 0  0.00265 0 0  0.0027 0 0  0.00275 0 0  0.0028 0 0  0.00285 0 0  0.0029 0 0  0.00295 0 0  0.003 0 0  0.00305 0 0  0.0031 0 0  0.00315 0 0  0.0032 0 0  0.00325 0 0  0.0033 0 0  0.00335 0 0  0.0034 0 0  0.00345 0 0  0.0035 0 0  0.00355 0 0  0.0036 0 0  0.00365 0 0  0.0037 0 0  0.00375 0 0  0.0038 0 0  0.00385 0 0  0.0039 0 0  0.00395 0 0  0.004 0 0  0.00405 0 0  0.0041 0 0  0.00415 0 0  0.0042 0 0  0.00425 0 0  0.0043 0 0  0.00435 0 0  0.0044 0 0  0.00445 0 0  0.0045 0 0  0.00455 0 0  0.0046 0 0  0.00465 0 0  0.0047 0 0  0.00475 0 0  0.0048 0 0  0.00485 0 0  0.0049 0 0  0.00495 0 0  0.005 0 0  0.00505 0 0  0.0051 0 0  0.00515 0 0  0.0052 0 0  0.00525 0 0  0.0053 0 0  0.00535 0 0  0.0054 0 0  0.00545 0 0  0.0055 0 0  0.00555 0 0  0.0056 0 0  0.00565 0 0  0.0057 0 0  0.00575 0 0  0.0058 0 0  0.00585 0 0  0.0059 0 0  0.00595 0 0  0.006 0 0  0.00605 0 0  0.0061 0 0  0.00615 0 0  0.0062 0 0  0.00625 0 0  0.0063 0 0  0.00635 0 0  0.0064 0 0  0.00645 0 0  0.0065 0 0  0.00655 0 0  0.0066 0 0  0.00665 0 0  0.0067 0 0  0.00675 0 0  0.0068 0 0  0.00685 0 0  0.0069 0 0  0.00695 0 0  0.007 0 0  0.00705 0 0  0.0071 0 0  0.00715 0 0  0.0072 0 0  0.00725 0 0  0.0073 0 0  0.00735 0 0  0.0074 0 0  0.00745 0 0  0.0075 0 0  0.00755 0 0  0.0076 0 0  0.00765 0 0  0.0077 0 0  0.00775 0 0  0.0078 0 0  0.007849999999999999 0 0  0.007900000000000001 0 0  0.00795 0 0  0.008 0 0  0.00805 0 0  0.0081 0 0  0.008149999999999999 0 0  0.008200000000000001 0 0  0.00825 0 0  0.0083 0 0  0.00835 0 0  0.008399999999999999 0 0  0.008449999999999999 0 0  0.008500000000000001 0 0  0.00855 0 0  0.0086 0 0  0.00865 0 0  0.008699999999999999 0 0  0.008750000000000001 0 0  0.008800000000000001 0 0  0.00885 0 0  0.0089 0 0  0.00895 0 0  0.008999999999999999 0 0  0.009050000000000001 0 0  0.0091 0 0  0.00915 0 0  0.0092 0 0  0.00925 0 0  0.009299999999999999 0 0  0.009350000000000001 0 0  0.0094 0 0  0.00945 0 0  0.0095 0 0  0.009549999999999999 0 0  0.009599999999999999 0 0  0.009650000000000001 0 0  0.0097 0 0  0.00975 0 0  0.0098 0 0  0.009849999999999999 0 0  0.009900000000000001 0 0  0.009950000000000001 0 0  0.01 0 0  0.01005 0 0  0.0101 0 0  0.01015 0 0  0.0102 0 0  0.01025 0 0  0.0103 0 0  0.01035 0 0  0.0104 0 0  0.01045 0 0  0.0105 0 0  0.01055 0 0  0.0106 0 0  0.01065 0 0  0.0107 0 0  0.01075 0 0  0.0108 0 0  0.01085 0 0  0.0109 0 0  0.01095 0 0  0.011 0 0  0.01105 0 0  0.0111 0 0  0.01115 0 0  0.0112 0 0  0.01125 0 0  0.0113 0 0  0.01135 0 0  0.0114 0 0  0.01145 0 0  0.0115 0 0  0.01155 0 0  0.0116 0 0  0.01165 0 0  0.0117 0 0  0.01175 0 0  0.0118 0 0  0.01185 0 0  0.0119 0 0  0.01195 0 0  0.012 0 0  0.01205 0 0  0.0121 0 0  0.01215 0 0  0.0122 0 0  0.01225 0 0  0.0123 0 0  0.01235 0 0  0.0124 0 0  0.01245 0 0  0.0125 0 0  0.01255 0 0  0.0126 0 0  0.01265 0 0  0.0127 0 0  0.01275 0 0  0.0128 0 0  0.01285 0 0  0.0129 0 0  0.01295 0 0  0.013 0 0  0.01305 0 0  0.0131 0 0  0.01315 0 0  0.0132 0 0  0.01325 0 0  0.0133 0 0  0.01335 0 0  0.0134 0 0  0.01345 0 0  0.0135 0 0  0.01355 0 0  0.0136 0 0  0.01365 0 0  0.0137 0 0  0.01375 0 0  0.0138 0 0  0.01385 0 0  0.0139 0 0  0.01395 0 0  0.014 0 0  0.01405 0 0  0.0141 0 0  0.01415 0 0  0.0142 0 0  0.01425 0 0  0.0143 0 0  0.01435 0 0  0.0144 0 0  0.01445 0 0  0.0145 0 0  0.01455 0 0  0.0146 0 0  0.01465 0 0  0.0147 0 0  0.01475 0 0  0.0148 0 0  0.01485 0 0  0.0149 0 0  0.01495 0 0  0.015 0 0  0.01505 0 0  0.0151 0 0  0.01515 0 0  0.0152 0 0  0.01525 0 0  0.0153 0 0  0.01535 0 0  0.0154 0 0  0.01545 0 0  0.0155 0 0  0.01555 0 0  0.0156 0 0  0.01565 0 0  0.0157 0 0  0.01575 0 0  0.0158 0 0  0.01585 0 0  0.0159 0 0  0.01595 0 0  0.016 0 0  0.01605 0 0  0.0161 0 0  0.01615 0 0  0.0162 0 0  0.01625 0 0  0.0163 0 0  0.01635 0 0  0.0164 0 0  0.01645 0 0  0.0165 0 0  0.01655 0 0  0.0166 0 0  0.01665 0 0  0.0167 0 0  0.01675 0 0  0.0168 0 0  0.01685 0 0  0.0169 0 0  0.01695 0 0  0.017 0 0  0.01705 0 0  0.0171 0 0  0.01715 0 0  0.0172 0 0  0.01725 0 0  0.0173 0 0  0.01735 0 0  0.0174 0 0  0.01745 0 0  0.0175 0 0  0.01755 0 0  0.0176 0 0  0.01765 0 0  0.0177 0 0  0.01775 0 0  0.0178 0 0  0.01785 0 0  0.0179 0 0  0.01795 0 0  0.018 0 0  0.01805 0 0  0.0181 0 0  0.01815 0 0  0.0182 0 0  0.01825 0 0  0.0183 0 0  0.01835 0 0  0.0184 0 0  0.01845 0 0  0.0185 0 0  0.01855 0 0  0.0186 0 0  0.01865 0 0  0.0187 0 0  0.01875 0 0  0.0188 0 0  0.01885 0 0  0.0189 0 0  0.01895 0 0  0.019 0 0  0.01905 0 0  0.0191 0 0  0.01915 0 0  0.0192 0 0  0.01925 0 0  0.0193 0 0  0.01935 0 0  0.0194 0 0  0.01945 0 0  0.0195 0 0  0.01955 0 0  0.0196 0 0  0.01965 0 0  0.0197 0 0  0.01975 0 0  0.0198 0 0  0.01985 0 0  0.0199 0 0  0.01995 0 0  0.02 0 0  0.02005 0 0  0.0201 0 0  0.02015 0 0  0.0202 0 0  0.02025 0 0  0.0203 0 0  0.02035 0 0  0.0204 0 0  0.02045 0 0  0.0205 0 0  0.02055 0 0  0.0206 0 0  0.02065 0 0  0.0207 0 0  0.02075 0 0  0.0208 0 0  0.02085 0 0  0.0209 0 0  0.02095 0 0  0.021 0 0  0.02105 0 0  0.0211 0 0  0.02115 0 0  0.0212 0 0  0.02125 0 0  0.0213 0 0  0.02135 0 0  0.0214 0 0  0.02145 0 0  0.0215 0 0  0.02155 0 0  0.0216 0 0  0.02165 0 0  0.0217 0 0  0.02175 0 0  0.0218 0 0  0.02185 0 0  0.0219 0 0  0.02195 0 0  0.022 0 0  0.02205 0 0  0.0221 0 0  0.02215 0 0  0.0222 0 0  0.02225 0 0  0.0223 0 0  0.02235 0 0  0.0224 0 0  0.02245 0 0  0.0225 0 0  0.02255 0 0  0.0226 0 0  0.02265 0 0  0.0227 0 0  0.02275 0 0  0.0228 0 0  0.02285 0 0  0.0229 0 0  0.02295 0 0  0.023 0 0  0.02305 0 0  0.0231 0 0  0.02315 0 0  0.0232 0 0  0.02325 0 0  0.0233 0 0  0.02335 0 0  0.0234 0 0  0.02345 0 0  0.0235 0 0  0.02355 0 0  0.0236 0 0  0.02365 0 0  0.0237 0 0  0.02375 0 0  0.0238 0 0  0.02385 0 0  0.0239 0 0  0.02395 0 0  0.024 0 0  0.02405 0 0  0.0241 0 0  0.02415 0 0  0.0242 0 0  0.02425 0 0  0.0243 0 0  0.02435 0 0  0.0244 0 0  0.02445 0 0  0.0245 0 0  0.02455 0 0  0.0246 0 0  0.02465 0 0  0.0247 0 0  0.02475 0 0  0.0248 0 0  0.02485 0 0  0.0249 0 0  0.02495 0 0  0.025 0 0  0.02505 0 0  0.0251 0 0  0.02515 0 0  0.0252 0 0  0.02525 0 0  0.0253 0 0  0.02535 0 0  0.0254 0 0  0.02545 0 0  0.0255 0 0  0.02555 0 0  0.0256 0 0  0.02565 0 0  0.0257 0 0  0.02575 0 0  0.0258 0 0  0.02585 0 0  0.0259 0 0  0.02595 0 0  0.026 0 0  0.02605 0 0  0.0261 0 0  0.02615 0 0  0.0262 0 0  0.02625 0 0  0.0263 0 0  0.02635 0 0  0.0264 0 0  0.02645 0 0  0.0265 0 0  0.02655 0 0  0.0266 0 0  0.02665 0 0  0.0267 0 0  0.02675 0 0  0.0268 0 0  0.02685 0 0  0.0269 0 0  0.02695 0 0  0.027 0 0  0.02705 0 0  0.0271 0 0  0.02715 0 0  0.0272 0 0  0.02725 0 0  0.0273 0 0  0.02735 0 0  0.0274 0 0  0.02745 0 0  0.0275 0 0  0.02755 0 0  0.0276 0 0  0.02765 0 0  0.0277 0 0  0.02775 0 0  0.0278 0 0  0.02785 0 0  0.0279 0 0  0.02795 0 0  0.028 0 0  0.02805 0 0  0.0281 0 0  0.02815 0 0  0.0282 0 0  0.02825 0 0  0.0283 0 0  0.02835 0 0  0.0284 0 0  0.02845 0 0  0.0285 0 0  0.02855 0 0  0.0286 0 0  0.02865 0 0  0.0287 0 0  0.02875 0 0  0.0288 0 0  0.02885 0 0  0.0289 0 0  0.02895 0 0  0.029 0 0  0.02905 0 0  0.0291 0 0  0.02915 0 0  0.0292 0 0  0.02925 0 0  0.0293 0 0  0.02935 0 0  0.0294 0 0  0.02945 0 0  0.0295 0 0  0.02955 0 0  0.0296 0 0  0.02965 0 0  0.0297 0 0  0.02975 0 0  0.0298 0 0  0.02985 0 0  0.0299 0 0  0.02995 0 0  0.03 0 0  0.03005 0 0  0.0301 0 0  0.03015 0 0  0.0302 0 0  0.03025 0 0  0.0303 0 0  0.03035 0 0  0.0304 0 0  0.03045 0 0  0.0305 0 0  0.03055 0 0  0.0306 0 0  0.03065 0 0  0.0307 0 0  0.03075 0 0  0.0308 0 0  0.03085 0 0  0.0309 0 0  0.03095 0 0  0.031 0 0  0.03105 0 0  0.0311 0 0  0.03115 0 0  0.0312 0 0  0.03125 0 0  0.0313 0 0  0.03135 0 0  0.0314 0 0  0.03145 0 0  0.0315 0 0  0.03155 0 0  0.0316 0 0  0.03165 0 0  0.0317 0 0  0.03175 0 0  0.0318 0 0  0.03185 0 0  0.0319 0 0  0.03195 0 0  0.032 0 0  0.03205 0 0  0.0321 0 0  0.03215 0 0  0.0322 0 0  0.03225 0 0  0.0323 0 0  0.03235 0 0  0.0324 0 0  0.03245 0 0  0.0325 0 0  0.03255 0 0  0.0326 0 0  0.03265 0 0  0.0327 0 0  0.03275 0 0  0.0328 0 0  0.03285 0 0  0.0329 0 0  0.03295 0 0  0.033 0 0  0.03305 0 0  0.0331 0 0  0.03315 0 0  0.0332 0 0  0.03325 0 0  0.0333 0 0  0.03335 0 0  0.0334 0 0  0.03345 0 0  0.0335 0 0  0.03355 0 0  0.0336 0 0  0.03365 0 0  0.0337 0 0  0.03375 0 0  0.0338 0 0  0.03385 0 0  0.0339 0 0  0.03395 0 0  0.034 0 0  0.03405 0 0  0.0341 0 0  0.03415 0 0  0.0342 0 0  0.03425 0 0  0.0343 0 0  0.03435 0 0  0.0344 0 0  0.03445 0 0  0.0345 0 0  0.03455 0 0  0.0346 0 0  0.03465 0 0  0.0347 0 0  0.03475 0 0  0.0348 0 0  0.03485 0 0  0.0349 0 0  0.03495 0 0  0.035 0 0  0.03505 0 0  0.0351 0 0  0.03515 0 0  0.0352 0 0  0.03525 0 0  0.0353 0 0  0.03535 0 0  0.0354 0 0  0.03545 0 0  0.0355 0 0  0.03555 0 0  0.0356 0 0  0.03565 0 0  0.0357 0 0  0.03575 0 0  0.0358 0 0  0.03585 0 0  0.0359 0 0  0.03595 0 0  0.036 0 0  0.03605 0 0  0.0361 0 0  0.03615 0 0  0.0362 0 0  0.03625 0 0  0.0363 0 0  0.03635 0 0  0.0364 0 0  0.03645 0 0  0.0365 0 0  0.03655 0 0  0.0366 0 0  0.03665 0 0  0.0367 0 0  0.03675 0 0  0.0368 0 0  0.03685 0 0  0.0369 0 0  0.03695 0 0  0.037 0 0  0.03705 0 0  0.0371 0 0  0.03715 0 0  0.0372 0 0  0.03725 0 0  0.0373 0 0  0.03735 0 0  0.0374 0 0  0.03745 0 0  0.0375 0 0  0.03755 0 0  0.0376 0 0  0.03765 0 0  0.0377 0 0  0.03775 0 0  0.0378 0 0  0.03785 0 0  0.0379 0 0  0.03795 0 0  0.038 0 0  0.03805 0 0  0.0381 0 0  0.0
[...]
<PointData  Scalars="f_13"> 
<DataArray  type="Float64"  Name="f_13"  format="ascii">3.7765218202364274e+91  1.6132768213959055e+87  6.9793617326442015e+86  4.1233728922102756e+86  2.7792485919167895e+86  2.0175044818235573e+86  1.5365914249408078e+86  1.2106014777887733e+86  9.7816380935386253e+85  8.0602611359392254e+85  6.7472315039155372e+85  5.7216612501469856e+85  4.9048774314640004e+85  4.2436982394611817e+85  3.7010239779192390e+85  3.2502781694491070e+85  2.8719861728240474e+85  2.5515948892337854e+85  2.2780411469295248e+85  2.0427868748640672e+85  1.8391538161776771e+85  1.6618553954249061e+85  1.5066613053179492e+85  1.3701532539075958e+85  1.2495444706620215e+85  1.1425445426195822e+85  1.0472569616686032e+85  9.6210059978587393e+84  8.8574890679150920e+84  8.1708238579735268e+84  7.5515112211388594e+84  6.9914499929452494e+84  6.4836984671757667e+84  6.0222820302201984e+84  5.6020370009453776e+84  5.2184830803584848e+84  4.8677185665106081e+84  4.5463338027134349e+84  4.2513393193863745e+84  3.9801058858919111e+84  3.7303142691108685e+84  3.4999129442244252e+84  3.2870823524093136e+84  3.0902045736969207e+84  2.9078374987942463e+84  2.7386927544842060e+84  2.5816167733334579e+84  2.4355745074528993e+84  2.2996353738042939e+84  2.1729610895091741e+84  2.0547951132630098e+84  1.9444534559895291e+84  1.8413166624001810e+84  1.7448227968138391e+84  1.6544612927554002e+84  1.5697675475313652e+84  1.4903181610074141e+84  1.4157267328532458e+84  1.3456401451090513e+84  1.2797352674984105e+84  1.2177160318144782e+84  1.1593108292251874e+84  1.1042701907115568e+84  1.0523647162616990e+84  1.0033832230484814e+84  9.5713108675008598e+83  9.1342875353696551e+83  8.7211040313434977e+83  8.3302274585038460e+83  7.9602393859765010e+83  7.6098260678164396e+83  7.2777696052703389e+83  6.9629399509736492e+83  6.6642876656699898e+83  6.3808373485130504e+83  6.1116816711428183e+83  5.8559759537060966e+83  5.6129332279727277e+83  5.3818197388193304e+83  5.1619508407266284e+83  4.9526872506630425e+83  4.7534316228908349e+83  4.5636254149046659e+83  4.3827460169578810e+83  4.2103041205038633e+83  4.0458413034246075e+83  3.8889278121768201e+83  3.7391605229921980e+83  3.5961610660537803e+83  3.4595740981604856e+83  3.3290657108105143e+83  3.2043219619011245e+83  3.0850475203750426e+83  2.9709644141577738e+83  2.8618108726389829e+83  2.7573402557664171e+83  2.6573200625533222e+83  2.5615310124589319e+83  2.4697661936943580e+83  2.3818302730403908e+83  2.2975387622456001e+83  2.2167173365080057e+83  2.1392012009367987e+83  2.0648345012462011e+83  1.9934697752554940e+83  1.9249674420611330e+83  1.8591953260114845e+83  1.7960282128550290e+83  1.7353474356512722e+83  1.6770404882321258e+83  1.6210006641822249e+83  1.5671267194713493e+83  1.5153225570221291e+83  1.4654969316331278e+83  1.4175631738024614e+83  1.3714389311112893e+83  1.3270459259309732e+83  1.2843097283132748e+83  1.2431595430105112e+83  1.2035280096527315e+83  1.1653510151825842e+83  1.1285675177159771e+83  1.0931193810586433e+83  1.0589512191656249e+83  1.0260102498830467e+83  9.9424615735973260e+82  9.6361096256052827e+82  9.3405890135403702e+82  9.0554630968513589e+82  8.7803151537732915e+82  8.5147473614204243e+82  8.2583798340154855e+82  8.0108497155952469e+82  7.7718103237850211e+82  7.5409303414683903e+82  7.3178930533945973e+82  7.1023956249661282e+82  6.8941484206344409e+82  6.6928743595036865e+82  6.4983083059014538e+82  6.3101964928236049e+82  6.1282959762973482e+82  5.9523741188340808e+82  5.7822081002621326e+82  5.6175844543393179e+82  5.4582986296478658e+82  5.3041545733692412e+82  5.1549643366251724e+82  5.0105477001537795e+82  4.8707318191664690e+82  4.7353508863030412e+82  4.6042458116693320e+82  4.4772639190039500e+82  4.3542586570790052e+82  4.2350893254939589e+82  4.1196208140725151e+82  4.0077233551198517e+82  3.8992722878419717e+82  3.7941478342701596e+82  3.6922348860725404e+82  3.5934228016708661e+82  3.4976052131147588e+82  3.4046798421973601e+82  3.3145483253262207e+82  3.2271160466911718e+82  3.1422919792971277e+82  3.0599885334543426e+82  2.9801214123417088e+82  2.9026094742803182e+82  2.8273746013748130e+82  2.7543415741991566e+82  2.6834379522213499e+82  2.6145939596785099e+82  2.5477423766295346e+82  2.4828184349274878e+82  2.4197597188678511e+82  2.3585060702819908e+82  2.2989994978575486e+82  2.2411840904792417e+82  2.1850059343944907e+82  2.1304130340186969e+82  2.0773552362047868e+82  2.0257841578108334e+82  1.9756531164082310e+82  1.9269170639811722e+82  1.8795325234758391e+82  1.8334575280650789e+82  1.7886515630011684e+82  1.7450755099358582e+82  1.7026915935929305e+82  1.6614633306844399e+82  1.6213554809672005e+82  1.5823340003413098e+82  1.5443659958974068e+82  1.5074196828240171e+82  1.4714643430906874e+82  1.4364702858268363e+82  1.4024088093201236e+82  1.3692521645618760e+82  1.3369735202706786e+82  1.3055469293285131e+82  1.2749472965670665e+82  1.2451503478447735e+82  1.2161326003580224e+82  1.1878713341326710e+82  1.1603445646445466e+82  1.1335310165200446e+82  1.1074100982702483e+82  1.0819618780141669e+82  1.0571670601487675e+82  1.0330069629254437e+82  1.0094634968944430e+82  9.8651914418053477e+81  9.6415693855490878e+81  9.4236044626987688e+81  9.2111374762449165e+81  9.0040141923063657e+81  8.8020851695051823e+81  8.6052055947781081e+81  8.4132351253594165e+81  8.2260377366819655e+81  8.0434815759544822e+81  7.8654388211839255e+81  7.6917855454218778e+81  7.5224015860238028e+81  7.3571704187192130e+81  7.1959790362995863e+81  7.0387178317393544e+81  6.8852804855732561e+81  6.7355638573610062e+81  6.5894678810775705e+81  6.4468954642742012e+81  6.3077523908620238e+81  6.1719472273763871e+81  6.0393912325860766e+81  5.9099982703173006e+81  5.7836847253679250e+81  5.6603694223924809e+81  5.5399735476437333e+81  5.4224205734610911e+81  5.3076361854008645e+81  5.1955482119077741e+81  5.0860865564311196e+81  4.9791831318930779e+81  4.8747717974204348e+81  4.7727882972545821e+81  4.6731702017581715e+81  4.5758568504400923e+81  4.4807892969236204e+81  4.3879102557855701e+81  4.2971640511973035e+81  4.2084965673011028e+81  4.1218552002580901e+81  4.0371888119064928e+81  3.9544476849714005e+81  3.8735834797695114e+81  3.7945491923546318e+81  3.7172991140517819e+81  3.6417887923297643e+81  3.5679749929641555e+81  3.4958156634443936e+81  3.4252698975804995e+81  3.3562979012667137e+81  3.2888609593609048e+81  3.2229214036402994e+81  3.1584425817954753e+81  3.0953888274260807e+81  3.0337254310031337e+81  2.9734186117640628e+81  2.9144354905079458e+81  2.8567440632596514e+81  2.8003131757727312e+81  2.7451124988420520e+81  2.6911125043982398e+81  2.6382844423570946e+81  2.5866003181980445e+81  2.5360328712467576e+81  2.4865555536378753e+81  2.4381425099347829e+81  2.3907685573841303e+81  2.3444091667836618e+81  2.2990404439426706e+81  2.2546391117151873e+81  2.2111824925866933e+81  2.1686484917958640e+81  2.1270155809735217e+81  2.0862627822815707e+81  2.0463696530354334e+81  2.0073162707939022e+81  1.9690832189010795e+81  1.9316515724655069e+81  1.8950028847621717e+81  1.8591191740435512e+81  1.8239829107463750e+81  1.7895770050812297e+81  1.7558847949925921e+81  1.7228900344773064e+81  1.6905768822499592e+81  1.6589298907439687e+81  1.6279339954376447e+81  1.5975745044947904e+81  1.5678370887098315e+81  1.5387077717477659e+81  1.5101729206695736e+81  1.4822192367340497e+81  1.4548337464673193e+81  1.4280037929916243e+81  1.4017170276052023e+81  1.3759614016054226e+81  1.3507251583475287e+81  1.3259968255316821e+81  1.3017652077111847e+81  1.2780193790150222e+81  1.2547486760780823e+81  1.2319426911726620e+81  1.2095912655350295e+81  1.1876844828810894e+81  1.1662126631053146e+81  1.1451663561573699e+81  1.1245363360910042e+81  1.1043135952799519e+81  1.0844893387958091e+81  1.0650549789429439e+81  1.0460021299457322e+81  1.0273226027835010e+81  1.0090084001687567e+81  9.9105171166440476e+80  9.7344490893578431e+80  9.5618054113351989e+80  9.3925133040327522e+80  9.2265016751864431e+80  9.0637010763354879e+80  8.9040436615058038e+80  8.7474631470189620e+80  8.5938947723933162e+80  8.4432752623054020e+80  8.2955427895805578e+80  8.1506369391825908e+80  8.0084986731734799e+80  7.8690702966147445e+80  7.7322954243833876e+80  7.5981189488757008e+80  7.4664870085733934e+80  7.3373469574473004e+80  7.2106473351742728e+80  7.0863378381442583e+80  6.9643692912347497e+80  6.8446936203307378e+80  6.7272638255689548e+80  6.6120339552857168e+80  6.4989590806485452e+80  6.3879952709520466e+80  6.2790995695593827e+80  6.1722299704711640e+80  6.0673453955040198e+80  5.9644056720618323e+80  5.8633715114829100e+80  5.7642044879471948e+80  5.6668670179277176e+80  5.5713223401711960e+80  5.4775344961931917e+80  5.3854683112734275e+80  5.2950893759375246e+80  5.2063640279117045e+80  5.1192593345374614e+80  5.0337430756335695e+80  4.9497837267930703e+80  4.8673504431035475e+80  4.7864130432789166e+80  4.7069419941915997e+80  4.6289083957942929e+80  4.5522839664206014e+80  4.4770410284543965e+80  4.4031524943578479e+80  4.3305918530486101e+80  4.2593331566165793e+80  4.1893510073712045e+80  4.1206205452105316e+80  4.0531174353032491e+80  3.9868178560755622e+80  3.9216984874945825e+80  3.8577364996404848e+80  3.7949095415597519e+80  3.7331957303919975e+80  3.6725736407632357e+80  3.6130222944384754e+80  3.5545211502269035e+80  3.4970500941329565e+80  3.4405894297468423e+80  3.3851198688683201e+80  3.3306225223575357e+80  3.2770788912070954e+80  3.2244708578295585e+80  3.1727806775547706e+80  3.1219909703316534e+80  3.0720847126290576e+80  3.0230452295306782e+80  2.9748561870189046e+80  2.9275015844428097e+80  2.8809657471655926e+80  2.8352333193867713e+80  2.7902892571347804e+80  2.7461188214255152e+80  2.7027075715826870e+80  2.6600413587158094e+80  2.6181063193518668e+80  2.5768888692167451e+80  2.5363756971626218e+80  2.4965537592377033e+80  2.4574102728946380e+80  2.4189327113341724e+80  2.3811087979806632e+80  2.3439265010860899e+80  2.3073740284594286e+80  2.2714398223182039e+80  2.2361125542591755e+80  2.2013811203452565e+80  2.1672346363057081e+80  2.1336624328468596e+80  2.1006540510705619e+80  2.0681992379977965e+80  2.0362879421947759e+80  2.0049103094990440e+80  1.9740566788431316e+80  1.9437175781733529e+80  1.9138837204614474e+80  1.8845459998067685e+80  1.8556954876268280e+80  1.8273234289340468e+80  1.7994212386966062e+80  1.7719804982813925e+80  1.7449929519769954e+80  1.7184505035948789e+80  1.6923452131468107e+80  1.6666692935967097e+80  1.6414151076851506e+80  1.6165751648247504e+80  1.5921421180647685e+80  1.5681087611232361e+80  1.5444680254850254e+80  1.5212129775642830e+80  1.4983368159296849e+80  1.4758328685910351e+80  1.4536945903457471e+80  1.4319155601837868e+80  1.4104894787497187e+80  1.3894101658604612e+80  1.3686715580774986e+80  1.3482677063322142e+80  1.3281927736031468e+80  1.3084410326439110e+80  1.2890068637606207e+80  1.2698847526376737e+80  1.2510692882107150e+80  1.2325551605857524e+80  1.2143371590033004e+80  1.1964101698465139e+80  1.1787691746923317e+80  1.1614092484045742e+80  1.1443255572680869e+80  1.1275133571629400e+80  1.1109679917777796e+80  1.0946848908614410e+80  1.0786595685119227e+80  1.0628876215018861e+80  1.0473647276398370e+80  1.0320866441661806e+80  1.0170492061833420e+80  1.0022483251191887e+80  9.8767998722300182e+79  9.7334025209324198e+79  9.5922525123641521e+79  9.4533118665630507e+79  9.3165432947290230e+79  9.1819101857037824e+79  9.0493765927340696e+79  8.9189072205124556e+79  8.7904674124891756e+79  8.6640231384490242e+79  8.5395409823475007e+79  8.4169881304001450e+79  8.2963323594197600e+79  8.1775420253956786e+79  8.0605860523099798e+79  7.9454339211851697e+79  7.8320556593583272e+79  7.7204218299766928e+79  7.6105035217097239e+79  7.5022723386729911e+79  7.3957003905591291e+79  7.2907602829712977e+79  7.1874251079548078e+79  7.0856684347223996e+79  6.9854643005691905e+79  6.8867872019727995e+79  6.7896120858749846e+79  6.6939143411405265e+79  6.5996697901896430e+79  6.5068546808002461e+79  6.4154456780761430e+79  6.3254198565777942e+79  6.2367546926119842e+79  6.1494280566770086e+79  6.0634182060600853e+79  5.9787037775835713e+79  5.8952637804969737e+79  5.8130775895114440e+79  5.7321249379737826e+79  5.6523859111770585e+79  5.5738409398047040e+79  5.4964707935054645e+79  5.4202565745962666e+79  5.3451797118903205e+79  5.2712219546478262e+79  5.1983653666466517e+79  5.1265923203704771e+79  5.0558854913118186e+79  4.9862278523876709e+79  4.9176026684652262e+79  4.8499934909954303e+79  4.7833841527521510e+79  4.7177587626746235e+79  4.6531017008111331e+79  4.5893976133616998e+79  4.5266314078177596e+79  4.4647882481968364e+79  4.4038535503701339e+79  4.3438129774812238e+79  4.2846524354538136e+79  4.2263580685868773e+79  4.1689162552352300e+79  4.1123136035737884e+79  4.0565369474438846e+79  4.0015733422797752e+79  3.9474100611138576e+79  3.8940345906588560e+79  3.8414346274654246e+79  3.7895980741536600e+79  3.7385130357169307e+79  3.6881678158966231e+79  3.6385509136262910e+79  3.5896510195438010e+79  3.5414570125701472e+79  3.4939579565534553e+79  3.4471430969769876e+79  3.4010018577297295e+79  3.3555238379383828e+79  3.3106988088594582e+79  3.2665167108302490e+79  3.2229676502775631e+79  3.1800418967829522e+79  3.1377298802033934e+79  3.0960221878462251e+79  3.0549095616972850e+79  3.0143828957012072e+79  2.9744332330927693e+79  2.9350517637783366e+79  2.8962298217663252e+79  2.8579588826457835e+79  2.8202305611120766e+79  2.7830366085387408e+79  2.7463689105946417e+79  2.7102194849054436e+79  2.6745804787586052e+79  2.6394441668509796e+79  2.6048029490781786e+79  2.5706493483649219e+79  2.5369760085354982e+79  2.5037756922235959e+79  2.4710412788207010e+79  2.4387657624623118e+79  2.4069422500512473e+79  2.3755639593172806e+79  2.3446242169124166e+79  2.3141164565411035e+79  2.2840342171247125e+79  2.2543711409995972e+79  2.2251209721480722e+79  2.1962775544617095e+79  2.1678348300362625e+79  2.1397868374976771e+79  2.1121277103585199e+79  2.0848516754042669e+79  2.0579530511088852e+79  2.0314262460791075e+79  2.0052657575268850e+79  1.9794661697694430e+79  1.9540221527564143e+79  1.9289284606235559e+79  1.9041799302725027e+79  1.8797714799760877e+79  1.8556981080086992e+79  1.8319548913012605e+79  1.8085369841202927e+79  1.7854396167706466e+79  1.7626580943214424e+79  1.7401877953547495e+79  1.7180241707366194e+79  1.6961627424100105e+79  1.6745991022091961e+79  1.6533289106952791e+79  1.6323478960123526e+79  1.6116518527639892e+79  1.5912366409096040e+79  1.5710981846803826e+79  1.5512324715143603e+79  1.5316355510102999e+79  1.5123035339000365e+79  1.4932325910389044e+79  1.4744189524139593e+79  1.4558589061696147e+79  1.4375487976503818e+79  1.4194850284604206e+79  1.4016640555395361e+79  1.3840823902553619e+79  1.3667365975114025e+79  1.3496232948706494e+79  1.3327391516944851e+79  1.3160808882965727e+79  1.2996452751114811e+79  1.2834291318777468e+79  1.2674293268351281e+79  1.2516427759357771e+79  1.2360664420690626e+79  1.2206973342998207e+79  1.2055325071197627e+79  1.1905690597118108e+79  1.1758041352271135e+79  1.1612349200745182e+79  1.1468586432222601e+79  1.1326725755116723e+79  1.1186740289826611e+79  1.1048603562107502e+79  1.0912289496554916e+79  1.0777772410200109e+79  1.0645027006215152e+79  1.0514028367725374e+79  1.0384751951727444e+79  1.0257173583110946e+79  1.0131269448781740e+79  1.0007016091885287e+79  9.8843904061279957e+78  9.7633696301949463e+78  9.6439313422620787e+78  9.5260534546015389e+78  9.4097142082779131e+78  9.2948921679342789e+78  9.1815662166661554e+78  9.0697155509817443e+78  8.9593196758472202e+78  8.8503583998151849e+78  8.7428118302350128e+78  8.6366603685436216e+78  8.5318847056350714e+78  8.4284658173078814e+78  8.3263849597883741e+78  8.2256236653288504e+78  8.1261637378793146e+78  8.0279872488312327e+78  7.9310765328323757e+78  7.8354141836711921e+78  7.7409830502296171e+78  7.6477662325031219e+78  7.5557470776867036e+78  7.4649091763258720e+78  7.3752363585312246e+78  7.2867126902557079e+78  7.1993224696333445e+78  7.1130502233783303e+78  7.0278807032436137e+78  6.9437988825377153e+78  6.8607899526988729e+78  6.7788393199254860e+78  6.6979326018618451e+78  6.6180556243383283e+78  6.5391944181649002e+78  6.4613352159771564e+78  6.3844644491338678e+78  6.3085687446653318e+78  6.2336349222713835e+78  6.1596499913684021e+78  6.0866011481844426e+78  6.0144757729015271e+78  5.9432614268445048e+78  5.8729458497154629e+78  5.8035169568729943e+78  5.7349628366556184e+78  5.6672717477484296e+78  5.6004321165924358e+78  5.5344325348356538e+78  5.4692617568254037e+78  5.4049086971410188e+78  5.3413624281662315e+78  5.2786121777007475e+78  5.2166473266100825e+78  5.1554574065132187e+78  5.0950320975073419e+78  5.0353612259289924e+78  4.9764347621511534e+78  4.9182428184154938e+78  4.8607756466993026e+78  4.8040236366164595e+78  4.7479773133518288e+78  4.6926273356286720e+78  4.6379644937083241e+78  4.5839797074217276e+78  4.5306640242321581e+78  4.4780086173288356e+78  4.4260047837506415e+78  4.3746439425395852e+78  4.3239176329235191e+78  4.2738175125275473e+78  4.2243353556137333e+78  4.1754630513485233e+78  4.1271926020975313e+78  4.0795161217471461e+78  4.0324258340525562e+78  3.9859140710117557e+78  3.9399732712650502e+78  3.8945959785197007e+78  3.8497748399992846e+78  3.8055026049172425e+78  3.7617721229744101e+78  3.7185763428799819e+78  3.6759083108955690e+78  3.6337611694019868e+78  3.5921281554883369e+78  3.5510025995631390e+78  3.5103779239869716e+78  3.4702476417264269e+78  3.4306053550289584e+78  3.3914447541182407e+78  3.3527596159098116e+78  3.3145438027465511e+78  3.2767912611537298e+78  3.2394960206133279e+78  3.2026521923572188e+78  3.1662539681790378e+78  3.1302956192643106e+78  3.0947714950386154e+78  3.0596760220334514e+78  3.0250037027695627e+78  2.9907491146573818e+78  2.9569069089143435e+78  2.9234718094988029e+78  2.8904386120602646e+78  2.8578021829057015e+78  2.8255574579816276e+78  2.7936994418717502e+78  2.7622232068099071e+78  2.7311238917080233e+78  2.7003967011989212e+78  2.6700369046936462e+78  2.6400398354531430e+78  2.6104008896740325e+78  2.5811155255882450e+78  2.5521792625763383e+78  2.5235876802941994e+78  2.4953364178129998e+78  2.4674211727721347e+78  2.4398377005449501e+78  2.4125818134170953e+78  2.3856493797772236e+78  2.3590363233199070e+78  2.3327386222605517e+78  2.3067523085621069e+78  2.2810734671734038e+78  2.2556982352789186e+78  2.2306228015598075e+78  2.2058434054659699e+78  2.1813563364990771e+78  2.1571579335062673e+78  2.1332445839844269e+78  2.1096127233948545e+78  2.0862588344881374e+78  2.0631794466391182e+78  2.0403711351917466e+78  2.0178305208136732e+78  1.9955542688604701e+78  1.9735390887492487e+78  1.9517817333416213e+78  1.9302789983357809e+78  1.9090277216676015e+78  1.8880247829206042e+78  1.8672671027446285e+78  1.8467516422831360e+78  1.8264754026089302e+78  1.8064354241682210e+78  1.7866287862328735e+78  1.7670526063607272e+78  1.7477040398638595e+78  1.7285802792846646e+78  1.7096785538796182e+78  1.6909961291106409e+78  1.6725303061438894e+78  1.6542784213559197e+78  1.6362378458470583e+78  1.6184059849619068e+78  1.6007802778168392e+78  1.5833581968344113e+78  1.5661372472845570e+78  1.5491149668324693e+78  1.5322889250930744e+78  1.5156567231919746e+78  1.4992159933327953e+78  1.4829643983708043e+78  1.4668996313927116e+78  1.4510194153025898e+78  1.4353215024137702e+78  1.4198036740466612e+78  1.4044637401323794e+78  1.3892995388221135e+78  1.3743089361021326e+78  1.3594898254143302e+78  1.3448401272822754e+78  1.3303577889426207e+78  1.3160407839818340e+78  1.3018871119781419e+78  1.2878947981486246e+78  1.2740618930013901e+78  1.2603864719927184e+78  1.2468666351891284e+78  1.2335005069342962e+78  1.2202862355207214e+78  1.2072219928661113e+78  1.1943059741943682e+78  1.1815363977211426e+78  1.1689115043438716e+78  1.1564295573362282e+78  1.1440888420469366e