<?xml version="1.0"?>
<VTKFile type="UnstructuredGrid"  version="0.1"  >
<UnstructuredGrid>
<Piece  NumberOfPoints="10001" NumberOfCells="10000">
<Points>
<DataArray  type="Float64"  NumberOfComponents="3"  format="ascii">0 0 0  0.0001 0 0  0.0002 0 0  0.0003 0 0  0.0004 0 0  0.0005 0 0  0.0005999999999999999 0 0  0.0007 0 0  0.0008 0 0  0.0009 0 0  0.001 0 0  0.0011 0 0  0.0012 0 0  0.0013 0 0  0.0014 0 0  0.0015 0 0  0.0016 0 0  0.0017 0 0  0.0018 0 0  0.0019 0 0  0.002 0 0  0.0021 0 0  0.0022 0 0  0.0023 0 0  0.0024 0 0  0.0025 0 0  0.0026 0 0  0.0027 0 0  0.0028 0 0  0.0029 0 0  0.003 0 0  0.0031 0 0  0.0032 0 0  0.0033 0 0  0.0034 0 0  0.0035 0 0  0.0036 0 0  0.0037 0 0  0.0038 0 0  0.0039 0 0  0.004 0 0  0.0041 0 0  0.0042 0 0  0.0043 0 0  0.0044 0 0  0.0045 0 0  0.0046 0 0  0.0047 0 0  0.0048 0 0  0.0049 0 0  0.005 0 0  0.0051 0 0  0.0052 0 0  0.0053 0 0  0.0054 0 0  0.0055 0 0  0.0056 0 0  0.0057 0 0  0.0058 0 0  0.0059 0 0  0.006 0 0  0.0061 0 0  0.0062 0 0  0.0063 0 0  0.0064 0 0  0.0065 0 0  0.0066 0 0  0.0067 0 0  0.0068 0 0  0.0069 0 0  0.007 0 0  0.0071 0 0  0.0072 0 0  0.0073 0 0  0.0074 0 0  0.0075 0 0  0.0076 0 0  0.0077 0 0  0.0078 0 0  0.007900000000000001 0 0  0.008 0 0  0.0081 0 0  0.008200000000000001 0 0  0.0083 0 0  0.008399999999999999 0 0  0.008500000000000001 0 0  0.0086 0 0  0.008699999999999999 0 0  0.008800000000000001 0 0  0.0089 0 0  0.008999999999999999 0 0  0.0091 0 0  0.0092 0 0  0.009299999999999999 0 0  0.0094 0 0  0.0095 0 0  0.009599999999999999 0 0  0.0097 0 0  0.0098 0 0  0.009900000000000001 0 0  0.01 0 0  0.0101 0 0  0.0102 0 0  0.0103 0 0  0.0104 0 0  0.0105 0 0  0.0106 0 0  0.0107 0 0  0.0108 0 0  0.0109 0 0  0.011 0 0  0.0111 0 0  0.0112 0 0  0.0113 0 0  0.0114 0 0  0.0115 0 0  0.0116 0 0  0.0117 0 0  0.0118 0 0  0.0119 0 0  0.012 0 0  0.0121 0 0  0.0122 0 0  0.0123 0 0  0.0124 0 0  0.0125 0 0  0.0126 0 0  0.0127 0 0  0.0128 0 0  0.0129 0 0  0.013 0 0  0.0131 0 0  0.0132 0 0  0.0133 0 0  0.0134 0 0  0.0135 0 0  0.0136 0 0  0.0137 0 0  0.0138 0 0  0.0139 0 0  0.014 0 0  0.0141 0 0  0.0142 0 0  0.0143 0 0  0.0144 0 0  0.0145 0 0  0.0146 0 0  0.0147 0 0  0.0148 0 0  0.0149 0 0  0.015 0 0  0.0151 0 0  0.0152 0 0  0.0153 0 0  0.0154 0 0  0.0155 0 0  0.0156 0 0  0.0157 0 0  0.0158 0 0  0.0159 0 0  0.016 0 0  0.0161 0 0  0.0162 0 0  0.0163 0 0  0.0164 0 0  0.0165 0 0  0.0166 0 0  0.0167 0 0  0.0168 0 0  0.0169 0 0  0.017 0 0  0.0171 0 0  0.0172 0 0  0.0173 0 0  0.0174 0 0  0.0175 0 0  0.0176 0 0  0.0177 0 0  0.0178 0 0  0.0179 0 0  0.018 0 0  0.0181 0 0  0.0182 0 0  0.0183 0 0  0.0184 0 0  0.0185 0 0  0.0186 0 0  0.0187 0 0  0.0188 0 0  0.0189 0 0  0.019 0 0  0.0191 0 0  0.0192 0 0  0.0193 0 0  0.0194 0 0  0.0195 0 0  0.0196 0 0  0.0197 0 0  0.0198 0 0  0.0199 0 0  0.02 0 0  0.0201 0 0  0.0202 0 0  0.0203 0 0  0.0204 0 0  0.0205 0 0  0.0206 0 0  0.0207 0 0  0.0208 0 0  0.0209 0 0  0.021 0 0  0.0211 0 0  0.0212 0 0  0.0213 0 0  0.0214 0 0  0.0215 0 0  0.0216 0 0  0.0217 0 0  0.0218 0 0  0.0219 0 0  0.022 0 0  0.0221 0 0  0.0222 0 0  0.0223 0 0  0.0224 0 0  0.0225 0 0  0.0226 0 0  0.0227 0 0  0.0228 0 0  0.0229 0 0  0.023 0 0  0.0231 0 0  0.0232 0 0  0.0233 0 0  0.0234 0 0  0.0235 0 0  0.0236 0 0  0.0237 0 0  0.0238 0 0  0.0239 0 0  0.024 0 0  0.0241 0 0  0.0242 0 0  0.0243 0 0  0.0244 0 0  0.0245 0 0  0.0246 0 0  0.0247 0 0  0.0248 0 0  0.0249 0 0  0.025 0 0  0.0251 0 0  0.0252 0 0  0.0253 0 0  0.0254 0 0  0.0255 0 0  0.0256 0 0  0.0257 0 0  0.0258 0 0  0.0259 0 0  0.026 0 0  0.0261 0 0  0.0262 0 0  0.0263 0 0  0.0264 0 0  0.0265 0 0  0.0266 0 0  0.0267 0 0  0.0268 0 0  0.0269 0 0  0.027 0 0  0.0271 0 0  0.0272 0 0  0.0273 0 0  0.0274 0 0  0.0275 0 0  0.0276 0 0  0.0277 0 0  0.0278 0 0  0.0279 0 0  0.028 0 0  0.0281 0 0  0.0282 0 0  0.0283 0 0  0.0284 0 0  0.0285 0 0  0.0286 0 0  0.0287 0 0  0.0288 0 0  0.0289 0 0  0.029 0 0  0.0291 0 0  0.0292 0 0  0.0293 0 0  0.0294 0 0  0.0295 0 0  0.0296 0 0  0.0297 0 0  0.0298 0 0  0.0299 0 0  0.03 0 0  0.0301 0 0  0.0302 0 0  0.0303 0 0  0.0304 0 0  0.0305 0 0  0.0306 0 0  0.0307 0 0  0.0308 0 0  0.0309 0 0  0.031 0 0  0.0311 0 0  0.0312 0 0  0.0313 0 0  0.0314 0 0  0.0315 0 0  0.0316 0 0  0.0317 0 0  0.0318 0 0  0.0319 0 0  0.032 0 0  0.0321 0 0  0.0322 0 0  0.0323 0 0  0.0324 0 0  0.0325 0 0  0.0326 0 0  0.0327 0 0  0.0328 0 0  0.0329 0 0  0.033 0 0  0.0331 0 0  0.0332 0 0  0.0333 0 0  0.0334 0 0  0.0335 0 0  0.0336 0 0  0.0337 0 0  0.0338 0 0  0.0339 0 0  0.034 0 0  0.0341 0 0  0.0342 0 0  0.0343 0 0  0.0344 0 0  0.0345 0 0  0.0346 0 0  0.0347 0 0  0.0348 0 0  0.0349 0 0  0.035 0 0  0.0351 0 0  0.0352 0 0  0.0353 0 0  0.0354 0 0  0.0355 0 0  0.0356 0 0  0.0357 0 0  0.0358 0 0  0.0359 0 0  0.036 0 0  0.0361 0 0  0.0362 0 0  0.0363 0 0  0.0364 0 0  0.0365 0 0  0.0366 0 0  0.0367 0 0  0.0368 0 0  0.0369 0 0  0.037 0 0  0.0371 0 0  0.0372 0 0  0.0373 0 0  0.0374 0 0  0.0375 0 0  0.0376 0 0  0.0377 0 0  0.0378 0 0  0.0379 0 0  0.038 0 0  0.0381 0 0  0.0382 0 0  0.0383 0 0  0.0384 0 0  0.0385 0 0  0.0386 0 0  0.0387 0 0  0.0388 0 0  0.0389 0 0  0.039 0 0  0.0391 0 0  0.0392 0 0  0.0393 0 0  0.0394 0 0  0.0395 0 0  0.0396 0 0  0.0397 0 0  0.0398 0 0  0.0399 0 0  0.04 0 0  0.0401 0 0  0.0402 0 0  0.0403 0 0  0.0404 0 0  0.0405 0 0  0.0406 0 0  0.0407 0 0  0.0408 0 0  0.0409 0 0  0.041 0 0  0.0411 0 0  0.0412 0 0  0.0413 0 0  0.0414 0 0  0.0415 0 0  0.0416 0 0  0.0417 0 0  0.0418 0 0  0.0419 0 0  0.042 0 0  0.0421 0 0  0.0422 0 0  0.0423 0 0  0.0424 0 0  0.0425 0 0  0.0426 0 0  0.0427 0 0  0.0428 0 0  0.0429 0 0  0.043 0 0  0.0431 0 0  0.0432 0 0  0.0433 0 0  0.0434 0 0  0.0435 0 0  0.0436 0 0  0.0437 0 0  0.0438 0 0  0.0439 0 0  0.044 0 0  0.0441 0 0  0.0442 0 0  0.0443 0 0  0.0444 0 0  0.0445 0 0  0.0446 0 0  0.0447 0 0  0.0448 0 0  0.0449 0 0  0.045 0 0  0.0451 0 0  0.0452 0 0  0.0453 0 0  0.0454 0 0  0.0455 0 0  0.0456 0 0  0.0457 0 0  0.0458 0 0  0.0459 0 0  0.046 0 0  0.0461 0 0  0.0462 0 0  0.0463 0 0  0.0464 0 0  0.0465 0 0  0.0466 0 0  0.0467 0 0  0.0468 0 0  0.0469 0 0  0.047 0 0  0.0471 0 0  0.0472 0 0  0.0473 0 0  0.0474 0 0  0.0475 0 0  0.0476 0 0  0.0477 0 0  0.0478 0 0  0.0479 0 0  0.048 0 0  0.0481 0 0  0.0482 0 0  0.0483 0 0  0.0484 0 0  0.0485 0 0  0.0486 0 0  0.0487 0 0  0.0488 0 0  0.0489 0 0  0.049 0 0  0.0491 0 0  0.0492 0 0  0.0493 0 0  0.0494 0 0  0.0495 0 0  0.0496 0 0  0.0497 0 0  0.0498 0 0  0.0499 0 0  0.05 0 0  0.0501 0 0  0.0502 0 0  0.0503 0 0  0.0504 0 0  0.0505 0 0  0.0506 0 0  0.0507 0 0  0.0508 0 0  0.0509 0 0  0.051 0 0  0.0511 0 0  0.0512 0 0  0.0513 0 0  0.0514 0 0  0.0515 0 0  0.0516 0 0  0.0517 0 0  0.0518 0 0  0.0519 0 0  0.052 0 0  0.0521 0 0  0.0522 0 0  0.0523 0 0  0.0524 0 0  0.0525 0 0  0.0526 0 0  0.0527 0 0  0.0528 0 0  0.0529 0 0  0.053 0 0  0.0531 0 0  0.0532 0 0  0.0533 0 0  0.0534 0 0  0.0535 0 0  0.0536 0 0  0.0537 0 0  0.0538 0 0  0.0539 0 0  0.054 0 0  0.0541 0 0  0.0542 0 0  0.0543 0 0  0.0544 0 0  0.0545 0 0  0.0546 0 0  0.0547 0 0  0.0548 0 0  0.0549 0 0  0.055 0 0  0.0551 0 0  0.0552 0 0  0.0553 0 0  0.0554 0 0  0.0555 0 0  0.0556 0 0  0.0557 0 0  0.0558 0 0  0.0559 0 0  0.056 0 0  0.0561 0 0  0.0562 0 0  0.0563 0 0  0.0564 0 0  0.0565 0 0  0.0566 0 0  0.0567 0 0  0.0568 0 0  0.0569 0 0  0.057 0 0  0.0571 0 0  0.0572 0 0  0.0573 0 0  0.0574 0 0  0.0575 0 0  0.0576 0 0  0.0577 0 0  0.0578 0 0  0.0579 0 0  0.058 0 0  0.0581 0 0  0.0582 0 0  0.0583 0 0  0.0584 0 0  0.0585 0 0  0.0586 0 0  0.0587 0 0  0.0588 0 0  0.0589 0 0  0.059 0 0  0.0591 0 0  0.0592 0 0  0.0593 0 0  0.0594 0 0  0.0595 0 0  0.0596 0 0  0.0597 0 0  0.0598 0 0  0.0599 0 0  0.06 0 0  0.0601 0 0  0.0602 0 0  0.0603 0 0  0.0604 0 0  0.0605 0 0  0.0606 0 0  0.0607 0 0  0.0608 0 0  0.0609 0 0  0.061 0 0  0.0611 0 0  0.0612 0 0  0.0613 0 0  0.0614 0 0  0.0615 0 0  0.0616 0 0  0.0617 0 0  0.0618 0 0  0.0619 0 0  0.062 0 0  0.0621 0 0  0.0622 0 0  0.0623 0 0  0.0624 0 0  0.0625 0 0  0.0626 0 0  0.06270000000000001 0 0  0.06279999999999999 0 0  0.0629 0 0  0.063 0 0  0.0631 0 0  0.06320000000000001 0 0  0.0633 0 0  0.0634 0 0  0.0635 0 0  0.0636 0 0  0.06370000000000001 0 0  0.0638 0 0  0.0639 0 0  0.064 0 0  0.0641 0 0  0.06419999999999999 0 0  0.0643 0 0  0.0644 0 0  0.0645 0 0  0.0646 0 0  0.06469999999999999 0 0  0.0648 0 0  0.0649 0 0  0.065 0 0  0.06510000000000001 0 0  0.06519999999999999 0 0  0.0653 0 0  0.0654 0 0  0.0655 0 0  0.06560000000000001 0 0  0.06569999999999999 0 0  0.0658 0 0  0.0659 0 0  0.066 0 0  0.06610000000000001 0 0  0.06619999999999999 0 0  0.0663 0 0  0.0664 0 0  0.0665 0 0  0.06660000000000001 0 0  0.0667 0 0  0.0668 0 0  0.0669 0 0  0.067 0 0  0.06710000000000001 0 0  0.0672 0 0  0.0673 0 0  0.0674 0 0  0.0675 0 0  0.06759999999999999 0 0  0.0677 0 0  0.0678 0 0  0.0679 0 0  0.068 0 0  0.06809999999999999 0 0  0.0682 0 0  0.0683 0 0  0.0684 0 0  0.06850000000000001 0 0  0.06859999999999999 0 0  0.0687 0 0  0.0688 0 0  0.0689 0 0  0.06900000000000001 0 0  0.06909999999999999 0 0  0.0692 0 0  0.0693 0 0  0.0694 0 0  0.06950000000000001 0 0  0.0696 0 0  0.0697 0 0  0.0698 0 0  0.0699 0 0  0.07000000000000001 0 0  0.0701 0 0  0.0702 0 0  0.0703 0 0  0.0704 0 0  0.07049999999999999 0 0  0.0706 0 0  0.0707 0 0  0.0708 0 0  0.0709 0 0  0.07099999999999999 0 0  0.0711 0 0  0.0712 0 0  0.0713 0 0  0.07140000000000001 0 0  0.07149999999999999 0 0  0.0716 0 0  0.0717 0 0  0.0718 0 0  0.07190000000000001 0 0  0.07199999999999999 0 0  0.0721 0 0  0.0722 0 0  0.0723 0 0  0.07240000000000001 0 0  0.0725 0 0  0.0726 0 0  0.0727 0 0  0.0728 0 0  0.07290000000000001 0 0  0.073 0 0  0.0731 0 0  0.0732 0 0  0.0733 0 0  0.07340000000000001 0 0  0.0735 0 0  0.0736 0 0  0.0737 0 0  0.0738 0 0  0.07389999999999999 0 0  0.074 0 0  0.0741 0 0  0.0742 0 0  0.0743 0 0  0.07439999999999999 0 0  0.0745 0 0  0.0746 0 0  0.0747 0 0  0.07480000000000001 0 0  0.07489999999999999 0 0  0.075 0 0  0.0751 0 0  0.0752 0 0  0.07530000000000001 0 0  0.07539999999999999 0 0  0.0755 0 0  0.0756 0 0  0.0757 0 0  0.07580000000000001 0 0  0.0759 0 0  0.076 0 0  0.0761 0 0  0.0762 0 0  0.07630000000000001 0 0  0.0764 0 0  0.0765 0 0  0.0766
[...]
<PointData  Scalars="f_18"> 
<DataArray  type="Float64"  Name="f_18"  format="ascii">0.0000000000000000e+00  1.0925975198091063e-31  2.1851949317831604e-31  3.2777921280871199e-31  4.3703890008859667e-31  5.4629854423447109e-31  6.5555813446284076e-31  7.6481765999021671e-31  8.7407711003311584e-31  9.8333647380806267e-31  1.0925957405315907e-30  1.2018548994202428e-30  1.3111139396905712e-30  1.4203728505591412e-30  1.5296316212425313e-30  1.6388902409573332e-30  1.7481486989201526e-30  1.8574069843476122e-30  1.9666650864563516e-30  2.0759229944630288e-30  2.1851806975843217e-30  2.2944381850369257e-30  2.4036954460375599e-30  2.5129524698029653e-30  2.6222092455499052e-30  2.7314657624951694e-30  2.8407220098555705e-30  2.9499779768479502e-30  3.0592336526891762e-30  3.1684890265961459e-30  3.2777440877857865e-30  3.3869988254750562e-30  3.4962532288809436e-30  3.6055072872204711e-30  3.7147609897106961e-30  3.8240143255687117e-30  3.9332672840116438e-30  4.0425198542566606e-30  4.1517720255209623e-30  4.2610237870217934e-30  4.3702751279764375e-30  4.4795260376022176e-30  4.5887765051165036e-30  4.6980265197367065e-30  4.8072760706802817e-30  4.9165251471647302e-30  5.0257737384076011e-30  5.1350218336264898e-30  5.2442694220390403e-30  5.3535164928629509e-30  5.4627630353159670e-30  5.5720090386158853e-30  5.6812544919805582e-30  5.7904993846278938e-30  5.8997437057758512e-30  6.0089874446424489e-30  6.1182305904457652e-30  6.2274731324039302e-30  6.3367150597351363e-30  6.4459563616576410e-30  6.5551970273897587e-30  6.6644370461498654e-30  6.7736764071564028e-30  6.8829150996278830e-30  6.9921531127828753e-30  7.1013904358400218e-30  7.2106270580180336e-30  7.3198629685356832e-30  7.4290981566118201e-30  7.5383326114653655e-30  7.6475663223153091e-30  7.7567992783807163e-30  7.8660314688807241e-30  7.9752628830345520e-30  8.0844935100614883e-30  8.1937233391809009e-30  8.3029523596122450e-30  8.4121805605750428e-30  8.5214079312889047e-30  8.6306344609735213e-30  8.7398601388486627e-30  8.8490849541341918e-30  8.9583088960500511e-30  9.0675319538162632e-30  9.1767541166529487e-30  9.2859753737803150e-30  9.3951957144186496e-30  9.5044151277883420e-30  9.6136336031098703e-30  9.7228511296037977e-30  9.8320676964907873e-30  9.9412832929916000e-30  1.0050497908327084e-29  1.0159711531718191e-29  1.0268924152385971e-29  1.0378135759551565e-29  1.0487346342436221e-29  1.0596555890261292e-29  1.0705764392248222e-29  1.0814971837618568e-29  1.0924178215593984e-29  1.1033383515396234e-29  1.1142587726247187e-29  1.1251790837368820e-29  1.1360992837983215e-29  1.1470193717312572e-29  1.1579393464579189e-29  1.1688592069005489e-29  1.1797789519814000e-29  1.1906985806227365e-29  1.2016180917468341e-29  1.2125374842759810e-29  1.2234567571324754e-29  1.2343759092386287e-29  1.2452949395167639e-29  1.2562138468892155e-29  1.2671326302783310e-29  1.2780512886064695e-29  1.2889698207960025e-29  1.2998882257693140e-29  1.3108065024488005e-29  1.3217246497568716e-29  1.3326426666159495e-29  1.3435605519484685e-29  1.3544783046768775e-29  1.3653959237236372e-29  1.3763134080112210e-29  1.3872307564621174e-29  1.3981479679988264e-29  1.4090650415438627e-29  1.4199819760197549e-29  1.4308987703490444e-29  1.4418154234542864e-29  1.4527319342580514e-29  1.4636483016829221e-29  1.4745645246514967e-29  1.4854806020863868e-29  1.4963965329102193e-29  1.5073123160456348e-29  1.5182279504152884e-29  1.5291434349418501e-29  1.5400587685480058e-29  1.5509739501564539e-29  1.5618889786899096e-29  1.5728038530711029e-29  1.5837185722227790e-29  1.5946331350676980e-29  1.6055475405286360e-29  1.6164617875283843e-29  1.6273758749897499e-29  1.6382898018355558e-29  1.6492035669886404e-29  1.6601171693718583e-29  1.6710306079080801e-29  1.6819438815201926e-29  1.6928569891310981e-29  1.7037699296637170e-29  1.7146827020409856e-29  1.7255953051858562e-29  1.7365077380212976e-29  1.7474199994702963e-29  1.7583320884558553e-29  1.7692440039009940e-29  1.7801557447287499e-29  1.7910673098621780e-29  1.8019786982243487e-29  1.8128899087383513e-29  1.8238009403272935e-29  1.8347117919142990e-29  1.8456224624225098e-29  1.8565329507750865e-29  1.8674432558952062e-29  1.8783533767060650e-29  1.8892633121308782e-29  1.9001730610928781e-29  1.9110826225153160e-29  1.9219919953214598e-29  1.9329011784345988e-29  1.9438101707780393e-29  1.9547189712751073e-29  1.9656275788491467e-29  1.9765359924235217e-29  1.9874442109216147e-29  1.9983522332668280e-29  2.0092600583825828e-29  2.0201676851923190e-29  2.0310751126194982e-29  2.0419823395875998e-29  2.0528893650201238e-29  2.0637961878405901e-29  2.0747028069725376e-29  2.0856092213395274e-29  2.0965154298651389e-29  2.1074214314729734e-29  2.1183272250866507e-29  2.1292328096298126e-29  2.1401381840261209e-29  2.1510433471992586e-29  2.1619482980729291e-29  2.1728530355708560e-29  2.1837575586167859e-29  2.1946618661344853e-29  2.2055659570477423e-29  2.2164698302803660e-29  2.2273734847561877e-29  2.2382769193990591e-29  2.2491801331328549e-29  2.2600831248814704e-29  2.2709858935688241e-29  2.2818884381188562e-29  2.2927907574555283e-29  2.3036928505028242e-29  2.3145947161847511e-29  2.3254963534253372e-29  2.3363977611486352e-29  2.3472989382787188e-29  2.3581998837396848e-29  2.3691005964556532e-29  2.3800010753507662e-29  2.3909013193491897e-29  2.4018013273751128e-29  2.4127010983527491e-29  2.4236006312063333e-29  2.4344999248601246e-29  2.4453989782384060e-29  2.4562977902654839e-29  2.4671963598656884e-29  2.4780946859633753e-29  2.4889927674829219e-29  2.4998906033487305e-29  2.5107881924852278e-29  2.5216855338168649e-29  2.5325826262681171e-29  2.5434794687634852e-29  2.5543760602274926e-29  2.5652723995846909e-29  2.5761684857596530e-29  2.5870643176769788e-29  2.5979598942612928e-29  2.6088552144372441e-29  2.6197502771295082e-29  2.6306450812627848e-29  2.6415396257618004e-29  2.6524339095513067e-29  2.6633279315560818e-29  2.6742216907009273e-29  2.6851151859106723e-29  2.6960084161101729e-29  2.7069013802243107e-29  2.7177940771779927e-29  2.7286865058961530e-29  2.7395786653037512e-29  2.7504705543257744e-29  2.7613621718872367e-29  2.7722535169131785e-29  2.7831445883286672e-29  2.7940353850587969e-29  2.8049259060286893e-29  2.8158161501634930e-29  2.8267061163883829e-29  2.8375958036285643e-29  2.8484852108092675e-29  2.8593743368557516e-29  2.8702631806933019e-29  2.8811517412472330e-29  2.8920400174428867e-29  2.9029280082056337e-29  2.9138157124608735e-29  2.9247031291340302e-29  2.9355902571505610e-29  2.9464770954359486e-29  2.9573636429157049e-29  2.9682498985153707e-29  2.9791358611605168e-29  2.9900215297767406e-29  3.0009069032896707e-29  3.0117919806249634e-29  3.0226767607083031e-29  3.0335612424654063e-29  3.0444454248220184e-29  3.0553293067039120e-29  3.0662128870368925e-29  3.0770961647467929e-29  3.0879791387594765e-29  3.0988618080008374e-29  3.1097441713967993e-29  3.1206262278733157e-29  3.1315079763563709e-29  3.1423894157719802e-29  3.1532705450461872e-29  3.1641513631050687e-29  3.1750318688747302e-29  3.1859120612813095e-29  3.1967919392509736e-29  3.2076715017099223e-29  3.2185507475843846e-29  3.2294296758006235e-29  3.2403082852849306e-29  3.2511865749636314e-29  3.2620645437630803e-29  3.2729421906096651e-29  3.2838195144298062e-29  3.2946965141499549e-29  3.3055731886965932e-29  3.3164495369962369e-29  3.3273255579754324e-29  3.3382012505607604e-29  3.3490766136788332e-29  3.3599516462562963e-29  3.3708263472198264e-29  3.3817007154961331e-29  3.3925747500119602e-29  3.4034484496940823e-29  3.4143218134693090e-29  3.4251948402644815e-29  3.4360675290064765e-29  3.4469398786222020e-29  3.4578118880385992e-29  3.4686835561826451e-29  3.4795548819813492e-29  3.4904258643617552e-29  3.5012965022509388e-29  3.5121667945760119e-29  3.5230367402641205e-29  3.5339063382424420e-29  3.5447755874381912e-29  3.5556444867786148e-29  3.5665130351909973e-29  3.5773812316026561e-29  3.5882490749409414e-29  3.5991165641332418e-29  3.6099836981069769e-29  3.6208504757896053e-29  3.6317168961086202e-29  3.6425829579915463e-29  3.6534486603659479e-29  3.6643140021594215e-29  3.6751789822996037e-29  3.6860435997141605e-29  3.6969078533307998e-29  3.7077717420772620e-29  3.7186352648813234e-29  3.7294984206707984e-29  3.7403612083735351e-29  3.7512236269174202e-29  3.7620856752303768e-29  3.7729473522403629e-29  3.7838086568753744e-29  3.7946695880634417e-29  3.8055301447326358e-29  3.8163903258110637e-29  3.8272501302268662e-29  3.8381095569082241e-29  3.8489686047833543e-29  3.8598272727805130e-29  3.8706855598279910e-29  3.8815434648541207e-29  3.8924009867872691e-29  3.9032581245558408e-29  3.9141148770882816e-29  3.9249712433130704e-29  3.9358272221587275e-29  3.9466828125538111e-29  3.9575380134269163e-29  3.9683928237066794e-29  3.9792472423217723e-29  3.9901012682009075e-29  4.0009549002728353e-29  4.0118081374663450e-29  4.0226609787102666e-29  4.0335134229334650e-29  4.0443654690648487e-29  4.0552171160333615e-29  4.0660683627679917e-29  4.0769192081977638e-29  4.0877696512517410e-29  4.0986196908590281e-29  4.1094693259487674e-29  4.1203185554501454e-29  4.1311673782923857e-29  4.1420157934047505e-29  4.1528637997165470e-29  4.1637113961571180e-29  4.1745585816558498e-29  4.1854053551421658e-29  4.1962517155455337e-29  4.2070976617954626e-29  4.2179431928214975e-29  4.2287883075532296e-29  4.2396330049202865e-29  4.2504772838523425e-29  4.2613211432791094e-29  4.2721645821303393e-29  4.2830075993358308e-29  4.2938501938254174e-29  4.3046923645289806e-29  4.3155341103764408e-29  4.3263754302977587e-29  4.3372163232229407e-29  4.3480567880820316e-29  4.3588968238051216e-29  4.3697364293223423e-29  4.3805756035638667e-29  4.3914143454599128e-29  4.4022526539407372e-29  4.4130905279366446e-29  4.4239279663779769e-29  4.4347649681951246e-29  4.4456015323185187e-29  4.4564376576786293e-29  4.4672733432059771e-29  4.4781085878311212e-29  4.4889433904846681e-29  4.4997777500972650e-29  4.5106116655996024e-29  4.5214451359224173e-29  4.5322781599964869e-29  4.5431107367526357e-29  4.5539428651217301e-29  4.5647745440346832e-29  4.5756057724224515e-29  4.5864365492160338e-29  4.5972668733464759e-29  4.6080967437448674e-29  4.6189261593423448e-29  4.6297551190700868e-29  4.6405836218593176e-29  4.6514116666413075e-29  4.6622392523473699e-29  4.6730663779088662e-29  4.6838930422572002e-29  4.6947192443238236e-29  4.7055449830402352e-29  4.7163702573379757e-29  4.7271950661486345e-29  4.7380194084038433e-29  4.7488432830352846e-29  4.7596666889746848e-29  4.7704896251538137e-29  4.7813120905044935e-29  4.7921340839585879e-29  4.8029556044480103e-29  4.8137766509047191e-29  4.8245972222607180e-29  4.8354173174480622e-29  4.8462369353988487e-29  4.8570560750452252e-29  4.8678747353193843e-29  4.8786929151535685e-29  4.8895106134800670e-29  4.9003278292312123e-29  4.9111445613393912e-29  4.9219608087370339e-29  4.9327765703566212e-29  4.9435918451306792e-29  4.9544066319917811e-29  4.9652209298725522e-29  4.9760347377056629e-29  4.9868480544238342e-29  4.9976608789598350e-29  5.0084732102464813e-29  5.0192850472166406e-29  5.0300963888032240e-29  5.0409072339391984e-29  5.0517175815575729e-29  5.0625274305914107e-29  5.0733367799738243e-29  5.0841456286379693e-29  5.0949539755170595e-29  5.1057618195443515e-29  5.1165691596531556e-29  5.1273759947768303e-29  5.1381823238487822e-29  5.1489881458024698e-29  5.1597934595713995e-29  5.1705982640891304e-29  5.1814025582892722e-29  5.1922063411054839e-29  5.2030096114714737e-29  5.2138123683210003e-29  5.2246146105878764e-29  5.2354163372059636e-29  5.2462175471091722e-29  5.2570182392314682e-29  5.2678184125068659e-29  5.2786180658694302e-29  5.2894171982532762e-29  5.3002158085925740e-29  5.3110138958215444e-29  5.3218114588744549e-29  5.3326084966856337e-29  5.3434050081894528e-29  5.3542009923203402e-29  5.3649964480127743e-29  5.3757913742012885e-29  5.3865857698204643e-29  5.3973796338049383e-29  5.4081729650893995e-29  5.4189657626085866e-29  5.4297580252972941e-29  5.4405497520903715e-29  5.4513409419227143e-29  5.4621315937292773e-29  5.4729217064450613e-29  5.4837112790051300e-29  5.4945003103445941e-29  5.5052887993986180e-29  5.5160767451024202e-29  5.5268641463912738e-29  5.5376510022005048e-29  5.5484373114654929e-29  5.5592230731216739e-29  5.5700082861045330e-29  5.5807929493496147e-29  5.5915770617925128e-29  5.6023606223688796e-29  5.6131436300144198e-29  5.6239260836648966e-29  5.6347079822561192e-29  5.6454893247239604e-29  5.6562701100043427e-29  5.6670503370332467e-29  5.6778300047467045e-29  5.6886091120808066e-29  5.6993876579716997e-29  5.7101656413555806e-29  5.7209430611687069e-29  5.7317199163473888e-29  5.7424962058279936e-29  5.7532719285469472e-29  5.7640470834407243e-29  5.7748216694458607e-29  5.7855956854989478e-29  5.7963691305366334e-29  5.8071420034956222e-29  5.8179143033126706e-29  5.8286860289245990e-29  5.8394571792682802e-29  5.8502277532806410e-29  5.8609977498986722e-29  5.8717671680594148e-29  5.8825360066999717e-29  5.8933042647575006e-29  5.9040719411692174e-29  5.9148390348723942e-29  5.9256055448043637e-29  5.9363714699025121e-29  5.9471368091042843e-29  5.9579015613471855e-29  5.9686657255687747e-29  5.9794293007066748e-29  5.9901922856985615e-29  6.0009546794821721e-29  6.0117164809953000e-29  6.0224776891757955e-29  6.0332383029615733e-29  6.0439983212906025e-29  6.0547577431009131e-29  6.0655165673305955e-29  6.0762747929177895e-29  6.0870324188007042e-29  6.0977894439176040e-29  6.1085458672068134e-29  6.1193016876067166e-29  6.1300569040557561e-29  6.1408115154924371e-29  6.1515655208553162e-29  6.1623189190830176e-29  6.1730717091142270e-29  6.1838238898876827e-29  6.1945754603421881e-29  6.2053264194166049e-29  6.2160767660498576e-29  6.2268264991809267e-29  6.2375756177488589e-29  6.2483241206927602e-29  6.2590720069517917e-29  6.2698192754651816e-29  6.2805659251722166e-29  6.2913119550122481e-29  6.3020573639246828e-29  6.3128021508489909e-29  6.3235463147247047e-29  6.3342898544914178e-29  6.3450327690887867e-29  6.3557750574565275e-29  6.3665167185344198e-29  6.3772577512623018e-29  6.3879981545800744e-29  6.3987379274277058e-29  6.4094770687452201e-29  6.4202155774727100e-29  6.4309534525503275e-29  6.4416906929182829e-29  6.4524272975168560e-29  6.4631632652863848e-29  6.4738985951672714e-29  6.4846332860999851e-29  6.4953673370250501e-29  6.5061007468830611e-29  6.5168335146146712e-29  6.5275656391605987e-29  6.5382971194616255e-29  6.5490279544585965e-29  6.5597581430924237e-29  6.5704876843040775e-29  6.5812165770345956e-29  6.5919448202250760e-29  6.6026724128166853e-29  6.6133993537506552e-29  6.6241256419682754e-29  6.6348512764109065e-29  6.6455762560199684e-29  6.6563005797369482e-29  6.6670242465033992e-29  6.6777472552609364e-29  6.6884696049512421e-29  6.6991912945160623e-29  6.7099123228972093e-29  6.7206326890365593e-29  6.7313523918760546e-29  6.7420714303577048e-29  6.7527898034235799e-29  6.7635075100158219e-29  6.7742245490766353e-29  6.7849409195482909e-29  6.7956566203731246e-29  6.8063716504935405e-29  6.8170860088520043e-29  6.8277996943910550e-29  6.8385127060532938e-29  6.8492250427813884e-29  6.8599367035180716e-29  6.8706476872061442e-29  6.8813579927884790e-29  6.8920676192080083e-29  6.9027765654077360e-29  6.9134848303307310e-29  6.9241924129201285e-29  6.9348993121191341e-29  6.9456055268710185e-29  6.9563110561191198e-29  6.9670158988068456e-29  6.9777200538776716e-29  6.9884235202751376e-29  6.9991262969428541e-29  7.0098283828244988e-29  7.0205297768638155e-29  7.0312304780046241e-29  7.0419304851908065e-29  7.0526297973663150e-29  7.0633284134751679e-29  7.0740263324614545e-29  7.0847235532693333e-29  7.0954200748430313e-29  7.1061158961268428e-29  7.1168110160651325e-29  7.1275054336023350e-29  7.1381991476829552e-29  7.1488921572515665e-29  7.1595844612528084e-29  7.1702760586313944e-29  7.1809669483321042e-29  7.1916571292997926e-29  7.2023466004793793e-29  7.2130353608158537e-29  7.2237234092542790e-29  7.2344107447397857e-29  7.2450973662175795e-29  7.2557832726329300e-29  7.2664684629311796e-29  7.2771529360577446e-29  7.2878366909581099e-29  7.2985197265778310e-29  7.3092020418625371e-29  7.3198836357579204e-29  7.3305645072097529e-29  7.3412446551638745e-29  7.3519240785661984e-29  7.3626027763627048e-29  7.3732807474994514e-29  7.3839579909225608e-29  7.3946345055782365e-29  7.4053102904127456e-29  7.4159853443724328e-29  7.4266596664037111e-29  7.4373332554530653e-29  7.4480061104670564e-29  7.4586782303923171e-29  7.4693496141755496e-29  7.4800202607635302e-29  7.4906901691031090e-29  7.5013593381412081e-29  7.5120277668248245e-29  7.5226954541010237e-29  7.5333623989169473e-29  7.5440286002198111e-29  7.5546940569569013e-29  7.5653587680755815e-29  7.5760227325232873e-29  7.5866859492475267e-29  7.5973484171958822e-29  7.6080101353160111e-29  7.6186711025556435e-29  7.6293313178625837e-29  7.6399907801847100e-29  7.6506494884699778e-29  7.6613074416664134e-29  7.6719646387221191e-29  7.6826210785852737e-29  7.6932767602041253e-29  7.7039316825270027e-29  7.7145858445023065e-29  7.7252392450785137e-29  7.7358918832041750e-29  7.7465437578279152e-29  7.7571948678984410e-29  7.7678452123645275e-29  7.7784947901750281e-29  7.7891436002788715e-29  7.7997916416250592e-29  7.8104389131626778e-29  7.8210854138408779e-29  7.8317311426088954e-29  7.8423760984160388e-29  7.8530202802116909e-29  7.8636636869453172e-29  7.8743063175664539e-29  7.8849481710247147e-29  7.8955892462697904e-29  7.9062295422514471e-29  7.9168690579195315e-29  7.9275077922239678e-29  7.9381457441147517e-29  7.9487829125419610e-29  7.9594192964557486e-29  7.9700548948063500e-29  7.9806897065440683e-29  7.9913237306192919e-29  8.0019569659824839e-29  8.0125894115841873e-29  8.0232210663750212e-29  8.0338519293056811e-29  8.0444819993269463e-29  8.0551112753896681e-29  8.0657397564447840e-29  8.0763674414432999e-29  8.0869943293363059e-29  8.0976204190749702e-29  8.1082457096105389e-29  8.1188701998943405e-29  8.1294938888777802e-29  8.1401167755123425e-29  8.1507388587495860e-29  8.1613601375411555e-29  8.1719806108387734e-29  8.1826002775942404e-29  8.1932191367594356e-29  8.2038371872863223e-29  8.2144544281269390e-29  8.2250708582334080e-29  8.2356864765579292e-29  8.2463012820527854e-29  8.2569152736703321e-29  8.2675284503630137e-29  8.2781408110833527e-29  8.2887523547839491e-29  8.2993630804174861e-29  8.3099729869367261e-29  8.3205820732945169e-29  8.3311903384437803e-29  8.3417977813375232e-29  8.3524044009288311e-29  8.3630101961708734e-29  8.3736151660169016e-29  8.3842193094202454e-29  8.3948226253343177e-29  8.4054251127126163e-29  8.4160267705087144e-29  8.4266275976762737e-29  8.4372275931690319e-29  8.4478267559408134e-29  8.4584250849455196e-29  8.4690225791371385e-29  8.4796192374697419e-29  8.4902150588974780e-29  8.5008100423745848e-29  8.5114041868553763e-29  8.5219974912942506e-29  8.5325899546456923e-29  8.5431815758642699e-29  8.5537723539046283e-29  8.5643622877214996e-29  8.5749513762696991e-29  8.5855396185041316e-29  8.5961270133797771e-29  8.6067135598516997e-29  8.6172992568750499e-29  8.6278841034050630e-29  8.6384680983970556e-29  8.6490512408064268e-29  8.6596335295886655e-29  8.6702149636993381e-29  8.6807955420941050e-29  8.6913752637287007e-29  8.7019541275589492e-29  8.7125321325407567e-29  8.7231092776301164e-29  8.7336855617831069e-29  8.7442609839558911e-29  8.7548355431047155e-29  8.7654092381859111e-29  8.7759820681558996e-29  8.7865540319711831e-29  8.7971251285883539e-29  8.8076953569640813e-29  8.8182647160551278e-29  8.8288332048183376e-29  8.8394008222106480e-29  8.8499675671890737e-29  8.8605334387107191e-29  8.8710984357327737e-29  8.8816625572125134e-29  8.8922258021073050e-29  8.9027881693745934e-29  8.9133496579719170e-29  8.9239102668568980e-29  8.9344699949872439e-29  8.9450288413207563e-29  8.9555868048153143e