<?xml version="1.0"?>
<VTKFile type="UnstructuredGrid"  version="0.1"  >
<UnstructuredGrid>
<Piece  NumberOfPoints="10001" NumberOfCells="10000">
<Points>
<DataArray  type="Float64"  NumberOfComponents="3"  format="ascii">0 0 0  0.0001 0 0  0.0002 0 0  0.0003 0 0  0.0004 0 0  0.0005 0 0  0.0005999999999999999 0 0  0.0007 0 0  0.0008 0 0  0.0009 0 0  0.001 0 0  0.0011 0 0  0.0012 0 0  0.0013 0 0  0.0014 0 0  0.0015 0 0  0.0016 0 0  0.0017 0 0  0.0018 0 0  0.0019 0 0  0.002 0 0  0.0021 0 0  0.0022 0 0  0.0023 0 0  0.0024 0 0  0.0025 0 0  0.0026 0 0  0.0027 0 0  0.0028 0 0  0.0029 0 0  0.003 0 0  0.0031 0 0  0.0032 0 0  0.0033 0 0  0.0034 0 0  0.0035 0 0  0.0036 0 0  0.0037 0 0  0.0038 0 0  0.0039 0 0  0.004 0 0  0.0041 0 0  0.0042 0 0  0.0043 0 0  0.0044 0 0  0.0045 0 0  0.0046 0 0  0.0047 0 0  0.0048 0 0  0.0049 0 0  0.005 0 0  0.0051 0 0  0.0052 0 0  0.0053 0 0  0.0054 0 0  0.0055 0 0  0.0056 0 0  0.0057 0 0  0.0058 0 0  0.0059 0 0  0.006 0 0  0.0061 0 0  0.0062 0 0  0.0063 0 0  0.0064 0 0  0.0065 0 0  0.0066 0 0  0.0067 0 0  0.0068 0 0  0.0069 0 0  0.007 0 0  0.0071 0 0  0.0072 0 0  0.0073 0 0  0.0074 0 0  0.0075 0 0  0.0076 0 0  0.0077 0 0  0.0078 0 0  0.007900000000000001 0 0  0.008 0 0  0.0081 0 0  0.008200000000000001 0 0  0.0083 0 0  0.008399999999999999 0 0  0.008500000000000001 0 0  0.0086 0 0  0.008699999999999999 0 0  0.008800000000000001 0 0  0.0089 0 0  0.008999999999999999 0 0  0.0091 0 0  0.0092 0 0  0.009299999999999999 0 0  0.0094 0 0  0.0095 0 0  0.009599999999999999 0 0  0.0097 0 0  0.0098 0 0  0.009900000000000001 0 0  0.01 0 0  0.0101 0 0  0.0102 0 0  0.0103 0 0  0.0104 0 0  0.0105 0 0  0.0106 0 0  0.0107 0 0  0.0108 0 0  0.0109 0 0  0.011 0 0  0.0111 0 0  0.0112 0 0  0.0113 0 0  0.0114 0 0  0.0115 0 0  0.0116 0 0  0.0117 0 0  0.0118 0 0  0.0119 0 0  0.012 0 0  0.0121 0 0  0.0122 0 0  0.0123 0 0  0.0124 0 0  0.0125 0 0  0.0126 0 0  0.0127 0 0  0.0128 0 0  0.0129 0 0  0.013 0 0  0.0131 0 0  0.0132 0 0  0.0133 0 0  0.0134 0 0  0.0135 0 0  0.0136 0 0  0.0137 0 0  0.0138 0 0  0.0139 0 0  0.014 0 0  0.0141 0 0  0.0142 0 0  0.0143 0 0  0.0144 0 0  0.0145 0 0  0.0146 0 0  0.0147 0 0  0.0148 0 0  0.0149 0 0  0.015 0 0  0.0151 0 0  0.0152 0 0  0.0153 0 0  0.0154 0 0  0.0155 0 0  0.0156 0 0  0.0157 0 0  0.0158 0 0  0.0159 0 0  0.016 0 0  0.0161 0 0  0.0162 0 0  0.0163 0 0  0.0164 0 0  0.0165 0 0  0.0166 0 0  0.0167 0 0  0.0168 0 0  0.0169 0 0  0.017 0 0  0.0171 0 0  0.0172 0 0  0.0173 0 0  0.0174 0 0  0.0175 0 0  0.0176 0 0  0.0177 0 0  0.0178 0 0  0.0179 0 0  0.018 0 0  0.0181 0 0  0.0182 0 0  0.0183 0 0  0.0184 0 0  0.0185 0 0  0.0186 0 0  0.0187 0 0  0.0188 0 0  0.0189 0 0  0.019 0 0  0.0191 0 0  0.0192 0 0  0.0193 0 0  0.0194 0 0  0.0195 0 0  0.0196 0 0  0.0197 0 0  0.0198 0 0  0.0199 0 0  0.02 0 0  0.0201 0 0  0.0202 0 0  0.0203 0 0  0.0204 0 0  0.0205 0 0  0.0206 0 0  0.0207 0 0  0.0208 0 0  0.0209 0 0  0.021 0 0  0.0211 0 0  0.0212 0 0  0.0213 0 0  0.0214 0 0  0.0215 0 0  0.0216 0 0  0.0217 0 0  0.0218 0 0  0.0219 0 0  0.022 0 0  0.0221 0 0  0.0222 0 0  0.0223 0 0  0.0224 0 0  0.0225 0 0  0.0226 0 0  0.0227 0 0  0.0228 0 0  0.0229 0 0  0.023 0 0  0.0231 0 0  0.0232 0 0  0.0233 0 0  0.0234 0 0  0.0235 0 0  0.0236 0 0  0.0237 0 0  0.0238 0 0  0.0239 0 0  0.024 0 0  0.0241 0 0  0.0242 0 0  0.0243 0 0  0.0244 0 0  0.0245 0 0  0.0246 0 0  0.0247 0 0  0.0248 0 0  0.0249 0 0  0.025 0 0  0.0251 0 0  0.0252 0 0  0.0253 0 0  0.0254 0 0  0.0255 0 0  0.0256 0 0  0.0257 0 0  0.0258 0 0  0.0259 0 0  0.026 0 0  0.0261 0 0  0.0262 0 0  0.0263 0 0  0.0264 0 0  0.0265 0 0  0.0266 0 0  0.0267 0 0  0.0268 0 0  0.0269 0 0  0.027 0 0  0.0271 0 0  0.0272 0 0  0.0273 0 0  0.0274 0 0  0.0275 0 0  0.0276 0 0  0.0277 0 0  0.0278 0 0  0.0279 0 0  0.028 0 0  0.0281 0 0  0.0282 0 0  0.0283 0 0  0.0284 0 0  0.0285 0 0  0.0286 0 0  0.0287 0 0  0.0288 0 0  0.0289 0 0  0.029 0 0  0.0291 0 0  0.0292 0 0  0.0293 0 0  0.0294 0 0  0.0295 0 0  0.0296 0 0  0.0297 0 0  0.0298 0 0  0.0299 0 0  0.03 0 0  0.0301 0 0  0.0302 0 0  0.0303 0 0  0.0304 0 0  0.0305 0 0  0.0306 0 0  0.0307 0 0  0.0308 0 0  0.0309 0 0  0.031 0 0  0.0311 0 0  0.0312 0 0  0.0313 0 0  0.0314 0 0  0.0315 0 0  0.0316 0 0  0.0317 0 0  0.0318 0 0  0.0319 0 0  0.032 0 0  0.0321 0 0  0.0322 0 0  0.0323 0 0  0.0324 0 0  0.0325 0 0  0.0326 0 0  0.0327 0 0  0.0328 0 0  0.0329 0 0  0.033 0 0  0.0331 0 0  0.0332 0 0  0.0333 0 0  0.0334 0 0  0.0335 0 0  0.0336 0 0  0.0337 0 0  0.0338 0 0  0.0339 0 0  0.034 0 0  0.0341 0 0  0.0342 0 0  0.0343 0 0  0.0344 0 0  0.0345 0 0  0.0346 0 0  0.0347 0 0  0.0348 0 0  0.0349 0 0  0.035 0 0  0.0351 0 0  0.0352 0 0  0.0353 0 0  0.0354 0 0  0.0355 0 0  0.0356 0 0  0.0357 0 0  0.0358 0 0  0.0359 0 0  0.036 0 0  0.0361 0 0  0.0362 0 0  0.0363 0 0  0.0364 0 0  0.0365 0 0  0.0366 0 0  0.0367 0 0  0.0368 0 0  0.0369 0 0  0.037 0 0  0.0371 0 0  0.0372 0 0  0.0373 0 0  0.0374 0 0  0.0375 0 0  0.0376 0 0  0.0377 0 0  0.0378 0 0  0.0379 0 0  0.038 0 0  0.0381 0 0  0.0382 0 0  0.0383 0 0  0.0384 0 0  0.0385 0 0  0.0386 0 0  0.0387 0 0  0.0388 0 0  0.0389 0 0  0.039 0 0  0.0391 0 0  0.0392 0 0  0.0393 0 0  0.0394 0 0  0.0395 0 0  0.0396 0 0  0.0397 0 0  0.0398 0 0  0.0399 0 0  0.04 0 0  0.0401 0 0  0.0402 0 0  0.0403 0 0  0.0404 0 0  0.0405 0 0  0.0406 0 0  0.0407 0 0  0.0408 0 0  0.0409 0 0  0.041 0 0  0.0411 0 0  0.0412 0 0  0.0413 0 0  0.0414 0 0  0.0415 0 0  0.0416 0 0  0.0417 0 0  0.0418 0 0  0.0419 0 0  0.042 0 0  0.0421 0 0  0.0422 0 0  0.0423 0 0  0.0424 0 0  0.0425 0 0  0.0426 0 0  0.0427 0 0  0.0428 0 0  0.0429 0 0  0.043 0 0  0.0431 0 0  0.0432 0 0  0.0433 0 0  0.0434 0 0  0.0435 0 0  0.0436 0 0  0.0437 0 0  0.0438 0 0  0.0439 0 0  0.044 0 0  0.0441 0 0  0.0442 0 0  0.0443 0 0  0.0444 0 0  0.0445 0 0  0.0446 0 0  0.0447 0 0  0.0448 0 0  0.0449 0 0  0.045 0 0  0.0451 0 0  0.0452 0 0  0.0453 0 0  0.0454 0 0  0.0455 0 0  0.0456 0 0  0.0457 0 0  0.0458 0 0  0.0459 0 0  0.046 0 0  0.0461 0 0  0.0462 0 0  0.0463 0 0  0.0464 0 0  0.0465 0 0  0.0466 0 0  0.0467 0 0  0.0468 0 0  0.0469 0 0  0.047 0 0  0.0471 0 0  0.0472 0 0  0.0473 0 0  0.0474 0 0  0.0475 0 0  0.0476 0 0  0.0477 0 0  0.0478 0 0  0.0479 0 0  0.048 0 0  0.0481 0 0  0.0482 0 0  0.0483 0 0  0.0484 0 0  0.0485 0 0  0.0486 0 0  0.0487 0 0  0.0488 0 0  0.0489 0 0  0.049 0 0  0.0491 0 0  0.0492 0 0  0.0493 0 0  0.0494 0 0  0.0495 0 0  0.0496 0 0  0.0497 0 0  0.0498 0 0  0.0499 0 0  0.05 0 0  0.0501 0 0  0.0502 0 0  0.0503 0 0  0.0504 0 0  0.0505 0 0  0.0506 0 0  0.0507 0 0  0.0508 0 0  0.0509 0 0  0.051 0 0  0.0511 0 0  0.0512 0 0  0.0513 0 0  0.0514 0 0  0.0515 0 0  0.0516 0 0  0.0517 0 0  0.0518 0 0  0.0519 0 0  0.052 0 0  0.0521 0 0  0.0522 0 0  0.0523 0 0  0.0524 0 0  0.0525 0 0  0.0526 0 0  0.0527 0 0  0.0528 0 0  0.0529 0 0  0.053 0 0  0.0531 0 0  0.0532 0 0  0.0533 0 0  0.0534 0 0  0.0535 0 0  0.0536 0 0  0.0537 0 0  0.0538 0 0  0.0539 0 0  0.054 0 0  0.0541 0 0  0.0542 0 0  0.0543 0 0  0.0544 0 0  0.0545 0 0  0.0546 0 0  0.0547 0 0  0.0548 0 0  0.0549 0 0  0.055 0 0  0.0551 0 0  0.0552 0 0  0.0553 0 0  0.0554 0 0  0.0555 0 0  0.0556 0 0  0.0557 0 0  0.0558 0 0  0.0559 0 0  0.056 0 0  0.0561 0 0  0.0562 0 0  0.0563 0 0  0.0564 0 0  0.0565 0 0  0.0566 0 0  0.0567 0 0  0.0568 0 0  0.0569 0 0  0.057 0 0  0.0571 0 0  0.0572 0 0  0.0573 0 0  0.0574 0 0  0.0575 0 0  0.0576 0 0  0.0577 0 0  0.0578 0 0  0.0579 0 0  0.058 0 0  0.0581 0 0  0.0582 0 0  0.0583 0 0  0.0584 0 0  0.0585 0 0  0.0586 0 0  0.0587 0 0  0.0588 0 0  0.0589 0 0  0.059 0 0  0.0591 0 0  0.0592 0 0  0.0593 0 0  0.0594 0 0  0.0595 0 0  0.0596 0 0  0.0597 0 0  0.0598 0 0  0.0599 0 0  0.06 0 0  0.0601 0 0  0.0602 0 0  0.0603 0 0  0.0604 0 0  0.0605 0 0  0.0606 0 0  0.0607 0 0  0.0608 0 0  0.0609 0 0  0.061 0 0  0.0611 0 0  0.0612 0 0  0.0613 0 0  0.0614 0 0  0.0615 0 0  0.0616 0 0  0.0617 0 0  0.0618 0 0  0.0619 0 0  0.062 0 0  0.0621 0 0  0.0622 0 0  0.0623 0 0  0.0624 0 0  0.0625 0 0  0.0626 0 0  0.06270000000000001 0 0  0.06279999999999999 0 0  0.0629 0 0  0.063 0 0  0.0631 0 0  0.06320000000000001 0 0  0.0633 0 0  0.0634 0 0  0.0635 0 0  0.0636 0 0  0.06370000000000001 0 0  0.0638 0 0  0.0639 0 0  0.064 0 0  0.0641 0 0  0.06419999999999999 0 0  0.0643 0 0  0.0644 0 0  0.0645 0 0  0.0646 0 0  0.06469999999999999 0 0  0.0648 0 0  0.0649 0 0  0.065 0 0  0.06510000000000001 0 0  0.06519999999999999 0 0  0.0653 0 0  0.0654 0 0  0.0655 0 0  0.06560000000000001 0 0  0.06569999999999999 0 0  0.0658 0 0  0.0659 0 0  0.066 0 0  0.06610000000000001 0 0  0.06619999999999999 0 0  0.0663 0 0  0.0664 0 0  0.0665 0 0  0.06660000000000001 0 0  0.0667 0 0  0.0668 0 0  0.0669 0 0  0.067 0 0  0.06710000000000001 0 0  0.0672 0 0  0.0673 0 0  0.0674 0 0  0.0675 0 0  0.06759999999999999 0 0  0.0677 0 0  0.0678 0 0  0.0679 0 0  0.068 0 0  0.06809999999999999 0 0  0.0682 0 0  0.0683 0 0  0.0684 0 0  0.06850000000000001 0 0  0.06859999999999999 0 0  0.0687 0 0  0.0688 0 0  0.0689 0 0  0.06900000000000001 0 0  0.06909999999999999 0 0  0.0692 0 0  0.0693 0 0  0.0694 0 0  0.06950000000000001 0 0  0.0696 0 0  0.0697 0 0  0.0698 0 0  0.0699 0 0  0.07000000000000001 0 0  0.0701 0 0  0.0702 0 0  0.0703 0 0  0.0704 0 0  0.07049999999999999 0 0  0.0706 0 0  0.0707 0 0  0.0708 0 0  0.0709 0 0  0.07099999999999999 0 0  0.0711 0 0  0.0712 0 0  0.0713 0 0  0.07140000000000001 0 0  0.07149999999999999 0 0  0.0716 0 0  0.0717 0 0  0.0718 0 0  0.07190000000000001 0 0  0.07199999999999999 0 0  0.0721 0 0  0.0722 0 0  0.0723 0 0  0.07240000000000001 0 0  0.0725 0 0  0.0726 0 0  0.0727 0 0  0.0728 0 0  0.07290000000000001 0 0  0.073 0 0  0.0731 0 0  0.0732 0 0  0.0733 0 0  0.07340000000000001 0 0  0.0735 0 0  0.0736 0 0  0.0737 0 0  0.0738 0 0  0.07389999999999999 0 0  0.074 0 0  0.0741 0 0  0.0742 0 0  0.0743 0 0  0.07439999999999999 0 0  0.0745 0 0  0.0746 0 0  0.0747 0 0  0.07480000000000001 0 0  0.07489999999999999 0 0  0.075 0 0  0.0751 0 0  0.0752 0 0  0.07530000000000001 0 0  0.07539999999999999 0 0  0.0755 0 0  0.0756 0 0  0.0757 0 0  0.07580000000000001 0 0  0.0759 0 0  0.076 0 0  0.0761 0 0  0.0762 0 0  0.07630000000000001 0 0  0.0764 0 0  0.0765 0 0  0.0766
[...]
<PointData  Scalars="f_18"> 
<DataArray  type="Float64"  Name="f_18"  format="ascii">0.0000000000000000e+00  2.6544465652554251e-29  5.3088928685274781e-29  7.9633386478328097e-29  1.0617783641188126e-28  1.3272227586610207e-28  1.5926670222115938e-28  1.8581111285722345e-28  2.1235550515446588e-28  2.3889987649306019e-28  2.6544422425318202e-28  2.9198854581500937e-28  3.1853283855872241e-28  3.4507709986450463e-28  3.7162132711254249e-28  3.9816551768302591e-28  4.2470966895614818e-28  4.5125377831210635e-28  4.7779784313110223e-28  5.0434186079334148e-28  5.3088582867903488e-28  5.5742974416839767e-28  5.8397360464165051e-28  6.1051740747901905e-28  6.3706115006073559e-28  6.6360482976703745e-28  6.9014844397816841e-28  7.1669199007437880e-28  7.4323546543592575e-28  7.6977886744307312e-28  7.9632219347609233e-28  8.2286544091526212e-28  8.4940860714086906e-28  8.7595168953320731e-28  9.0249468547257967e-28  9.2903759233929808e-28  9.5558040751368218e-28  9.8212312837606149e-28  1.0086657523067741e-27  1.0352082766861681e-27  1.0617506988946016e-27  1.0882930163124420e-27  1.1148352263200678e-27  1.1413773262978684e-27  1.1679193136262432e-27  1.1944611856856027e-27  1.2210029398563701e-27  1.2475445735189784e-27  1.2740860840538732e-27  1.3006274688415131e-27  1.3271687252623681e-27  1.3537098506969210e-27  1.3802508425256679e-27  1.4067916981291186e-27  1.4333324148877948e-27  1.4598729901822332e-27  1.4864134213929844e-27  1.5129537059006123e-27  1.5394938410856954e-27  1.5660338243288283e-27  1.5925736530106192e-27  1.6191133245116917e-27  1.6456528362126853e-27  1.6721921854942555e-27  1.6987313697370736e-27  1.7252703863218268e-27  1.7518092326292198e-27  1.7783479060399725e-27  1.8048864039348236e-27  1.8314247236945282e-27  1.8579628626998588e-27  1.8845008183316060e-27  1.9110385879705794e-27  1.9375761689976056e-27  1.9641135587935301e-27  1.9906507547392180e-27  2.0171877542155530e-27  2.0437245546034378e-27  2.0702611532837958e-27  2.0967975476375698e-27  2.1233337350457219e-27  2.1498697128892357e-27  2.1764054785491165e-27  2.2029410294063862e-27  2.2294763628420932e-27  2.2560114762373051e-27  2.2825463669731094e-27  2.3090810324306191e-27  2.3356154699909678e-27  2.3621496770353102e-27  2.3886836509448262e-27  2.4152173891007169e-27  2.4417508888842070e-27  2.4682841476765456e-27  2.4948171628590056e-27  2.5213499318128823e-27  2.5478824519194966e-27  2.5744147205601952e-27  2.6009467351163463e-27  2.6274784929693462e-27  2.6540099915006146e-27  2.6805412280915978e-27  2.7070722001237687e-27  2.7336029049786238e-27  2.7601333400376886e-27  2.7866635026825143e-27  2.8131933902946770e-27  2.8397230002557833e-27  2.8662523299474655e-27  2.8927813767513829e-27  2.9193101380492250e-27  2.9458386112227071e-27  2.9723667936535735e-27  2.9988946827235984e-27  3.0254222758145839e-27  3.0519495703083608e-27  3.0784765635867907e-27  3.1050032530317649e-27  3.1315296360252025e-27  3.1580557099490558e-27  3.1845814721853047e-27  3.2111069201159623e-27  3.2376320511230725e-27  3.2641568625887090e-27  3.2906813518949781e-27  3.3172055164240184e-27  3.3437293535579982e-27  3.3702528606791215e-27  3.3967760351696212e-27  3.4232988744117658e-27  3.4498213757878570e-27  3.4763435366802280e-27  3.5028653544712465e-27  3.5293868265433139e-27  3.5559079502788666e-27  3.5824287230603728e-27  3.6089491422703386e-27  3.6354692052913038e-27  3.6619889095058428e-27  3.6885082522965649e-27  3.7150272310461176e-27  3.7415458431371815e-27  3.7680640859524749e-27  3.7945819568747516e-27  3.8210994532868017e-27  3.8476165725714550e-27  3.8741333121115756e-27  3.9006496692900671e-27  3.9271656414898698e-27  3.9536812260939610e-27  3.9801964204853599e-27  4.0067112220471201e-27  4.0332256281623360e-27  4.0597396362141401e-27  4.0862532435857057e-27  4.1127664476602421e-27  4.1392792458210045e-27  4.1657916354512823e-27  4.1923036139344105e-27  4.2188151786537582e-27  4.2453263269927407e-27  4.2718370563348125e-27  4.2983473640634691e-27  4.3248572475622476e-27  4.3513667042147290e-27  4.3778757314045329e-27  4.4043843265153240e-27  4.4308924869308089e-27  4.4574002100347370e-27  4.4839074932108994e-27  4.5104143338431354e-27  4.5369207293153220e-27  4.5634266770113832e-27  4.5899321743152879e-27  4.6164372186110490e-27  4.6429418072827231e-27  4.6694459377144111e-27  4.6959496072902622e-27  4.7224528133944664e-27  4.7489555534112633e-27  4.7754578247249375e-27  4.8019596247198197e-27  4.8284609507802864e-27  4.8549618002907630e-27  4.8814621706357186e-27  4.9079620591996719e-27  4.9344614633671893e-27  4.9609603805228844e-27  4.9874588080514171e-27  5.0139567433375003e-27  5.0404541837658902e-27  5.0669511267213953e-27  5.0934475695888728e-27  5.1199435097532295e-27  5.1464389445994181e-27  5.1729338715124471e-27  5.1994282878773705e-27  5.2259221910792951e-27  5.2524155785033767e-27  5.2789084475348227e-27  5.3054007955588907e-27  5.3318926199608928e-27  5.3583839181261913e-27  5.3848746874401981e-27  5.4113649252883796e-27  5.4378546290562539e-27  5.4643437961293927e-27  5.4908324238934189e-27  5.5173205097340105e-27  5.5438080510368979e-27  5.5702950451878675e-27  5.5967814895727559e-27  5.6232673815774549e-27  5.6497527185879137e-27  5.6762374979901334e-27  5.7027217171701720e-27  5.7292053735141411e-27  5.7556884644082094e-27  5.7821709872386003e-27  5.8086529393915915e-27  5.8351343182535204e-27  5.8616151212107826e-27  5.8880953456498244e-27  5.9145749889571534e-27  5.9410540485193321e-27  5.9675325217229836e-27  5.9940104059547867e-27  6.0204876986014819e-27  6.0469643970498624e-27  6.0734404986867835e-27  6.0999160008991572e-27  6.1263909010739573e-27  6.1528651965982151e-27  6.1793388848590233e-27  6.2058119632435324e-27  6.2322844291389570e-27  6.2587562799325680e-27  6.2852275130116972e-27  6.3116981257637403e-27  6.3381681155761510e-27  6.3646374798364461e-27  6.3911062159322044e-27  6.4175743212510661e-27  6.4440417931807347e-27  6.4705086291089759e-27  6.4969748264236168e-27  6.5234403825125478e-27  6.5499052947637236e-27  6.5763695605651648e-27  6.6028331773049522e-27  6.6292961423712297e-27  6.6557584531522088e-27  6.6822201070361597e-27  6.7086811014114271e-27  6.7351414336664135e-27  6.7616011011895884e-27  6.7880601013694905e-27  6.8145184315947171e-27  6.8409760892539374e-27  6.8674330717358822e-27  6.8938893764293571e-27  6.9203450007232276e-27  6.9467999420064314e-27  6.9732541976679661e-27  6.9997077650969027e-27  7.0261606416823767e-27  7.0526128248135967e-27  7.0790643118798375e-27  7.1055151002704397e-27  7.1319651873748158e-27  7.1584145705824471e-27  7.1848632472828838e-27  7.2113112148657449e-27  7.2377584707207242e-27  7.2642050122375784e-27  7.2906508368061420e-27  7.3170959418163136e-27  7.3435403246580684e-27  7.3699839827214472e-27  7.3964269133965684e-27  7.4228691140736180e-27  7.4493105821428563e-27  7.4757513149946128e-27  7.5021913100192943e-27  7.5286305646073780e-27  7.5550690761494142e-27  7.5815068420360250e-27  7.6079438596579085e-27  7.6343801264058360e-27  7.6608156396706507e-27  7.6872503968432788e-27  7.7136843953147082e-27  7.7401176324760103e-27  7.7665501057183250e-27  7.7929818124328744e-27  7.8194127500109505e-27  7.8458429158439303e-27  7.8722723073232580e-27  7.8987009218404555e-27  7.9251287567871234e-27  7.9515558095549385e-27  7.9779820775356564e-27  8.0044075581211105e-27  8.0308322487032098e-27  8.0572561466739410e-27  8.0836792494253698e-27  8.1101015543496408e-27  8.1365230588389803e-27  8.1629437602856848e-27  8.1893636560821401e-27  8.2157827436208050e-27  8.2422010202942228e-27  8.2686184834950088e-27  8.2950351306158686e-27  8.3214509590495795e-27  8.3478659661890079e-27  8.3742801494270962e-27  8.4006935061568669e-27  8.4271060337714291e-27  8.4535177296639703e-27  8.4799285912277616e-27  8.5063386158561543e-27  8.5327478009425844e-27  8.5591561438805710e-27  8.5855636420637110e-27  8.6119702928856927e-27  8.6383760937402794e-27  8.6647810420213275e-27  8.6911851351227737e-27  8.7175883704386351e-27  8.7439907453630180e-27  8.7703922572901101e-27  8.7967929036141926e-27  8.8231926817296227e-27  8.8495915890308452e-27  8.8759896229123937e-27  8.9023867807688866e-27  8.9287830599950299e-27  8.9551784579856140e-27  8.9815729721355171e-27  9.0079665998397091e-27  9.0343593384932359e-27  9.0607511854912455e-27  9.0871421382289616e-27  9.1135321941017044e-27  9.1399213505048829e-27  9.1663096048339864e-27  9.1926969544846005e-27  9.2190833968523981e-27  9.2454689293331427e-27  9.2718535493226897e-27  9.2982372542169760e-27  9.3246200414120363e-27  9.3510019083039899e-27  9.3773828522890565e-27  9.4037628707635377e-27  9.4301419611238340e-27  9.4565201207664336e-27  9.4828973470879119e-27  9.5092736374849466e-27  9.5356489893542968e-27  9.5620234000928238e-27  9.5883968670974762e-27  9.6147693877652946e-27  9.6411409594934184e-27  9.6675115796790763e-27  9.6938812457195928e-27  9.7202499550123887e-27  9.7466177049549723e-27  9.7729844929449567e-27  9.7993503163800382e-27  9.8257151726580193e-27  9.8520790591767841e-27  9.8784419733343333e-27  9.9048039125287491e-27  9.9311648741582056e-27  9.9575248556209846e-27  9.9838838543154596e-27  1.0010241867640103e-26  1.0036598892993483e-26  1.0062954927774263e-26  1.0089309969381211e-26  1.0115664015213185e-26  1.0142017062669147e-26  1.0168369109148152e-26  1.0194720152049358e-26  1.0221070188772028e-26  1.0247419216715511e-26  1.0273767233279265e-26  1.0300114235862842e-26  1.0326460221865900e-26  1.0352805188688196e-26  1.0379149133729582e-26  1.0405492054390020e-26  1.0431833948069561e-26  1.0458174812168371e-26  1.0484514644086706e-26  1.0510853441224929e-26  1.0537191200983507e-26  1.0563527920763003e-26  1.0589863597964094e-26  1.0616198229987546e-26  1.0642531814234237e-26  1.0668864348105150e-26  1.0695195829001362e-26  1.0721526254324069e-26  1.0747855621474555e-26  1.0774183927854220e-26  1.0800511170864561e-26  1.0826837347907182e-26  1.0853162456383799e-26  1.0879486493696223e-26  1.0905809457246381e-26  1.0932131344436300e-26  1.0958452152668109e-26  1.0984771879344053e-26  1.1011090521866478e-26  1.1037408077637836e-26  1.1063724544060687e-26  1.1090039918537706e-26  1.1116354198471667e-26  1.1142667381265451e-26  1.1168979464322055e-26  1.1195290445044576e-26  1.1221600320836231e-26  1.1247909089100337e-26  1.1274216747240322e-26  1.1300523292659724e-26  1.1326828722762190e-26  1.1353133034951481e-26  1.1379436226631458e-26  1.1405738295206106e-26  1.1432039238079519e-26  1.1458339052655893e-26  1.1484637736339541e-26  1.1510935286534887e-26  1.1537231700646465e-26  1.1563526976078928e-26  1.1589821110237028e-26  1.1616114100525645e-26  1.1642405944349760e-26  1.1668696639114477e-26  1.1694986182225008e-26  1.1721274571086672e-26  1.1747561803104918e-26  1.1773847875685292e-26  1.1800132786233473e-26  1.1826416532155232e-26  1.1852699110856476e-26  1.1878980519743216e-26  1.1905260756221579e-26  1.1931539817697813e-26  1.1957817701578274e-26  1.1984094405269446e-26  1.2010369926177921e-26  1.2036644261710402e-26  1.2062917409273723e-26  1.2089189366274822e-26  1.2115460130120766e-26  1.2141729698218734e-26  1.2167998067976022e-26  1.2194265236800050e-26  1.2220531202098346e-26  1.2246795961278569e-26  1.2273059511748484e-26  1.2299321850915987e-26  1.2325582976189095e-26  1.2351842884975929e-26  1.2378101574684746e-26  1.2404359042723912e-26  1.2430615286501926e-26  1.2456870303427402e-26  1.2483124090909066e-26  1.2509376646355777e-26  1.2535627967176506e-26  1.2561878050780355e-26  1.2588126894576547e-26  1.2614374495974422e-26  1.2640620852383448e-26  1.2666865961213209e-26  1.2693109819873420e-26  1.2719352425773914e-26  1.2745593776324653e-26  1.2771833868935720e-26  1.2798072701017316e-26  1.2824310269979780e-26  1.2850546573233558e-26  1.2876781608189237e-26  1.2903015372257525e-26  1.2929247862849245e-26  1.2955479077375360e-26  1.2981709013246950e-26  1.3007937667875232e-26  1.3034165038671528e-26  1.3060391123047315e-26  1.3086615918414171e-26  1.3112839422183817e-26  1.3139061631768099e-26  1.3165282544578986e-26  1.3191502158028577e-26  1.3217720469529103e-26  1.3243937476492914e-26  1.3270153176332504e-26  1.3296367566460480e-26  1.3322580644289588e-26  1.3348792407232707e-26  1.3375002852702828e-26  1.3401211978113095e-26  1.3427419780876762e-26  1.3453626258407228e-26  1.3479831408118014e-26  1.3506035227422780e-26  1.3532237713735308e-26  1.3558438864469514e-26  1.3584638677039455e-26  1.3610837148859309e-26  1.3637034277343389e-26  1.3663230059906150e-26  1.3689424493962166e-26  1.3715617576926151e-26  1.3741809306212945e-26  1.3767999679237538e-26  1.3794188693415043e-26  1.3820376346160699e-26  1.3846562634889894e-26  1.3872747557018150e-26  1.3898931109961107e-26  1.3925113291134560e-26  1.3951294097954433e-26  1.3977473527836781e-26  1.4003651578197793e-26  1.4029828246453807e-26  1.4056003530021282e-26  1.4082177426316826e-26  1.4108349932757181e-26  1.4134521046759219e-26  1.4160690765739956e-26  1.4186859087116549e-26  1.4213026008306284e-26  1.4239191526726591e-26  1.4265355639795032e-26  1.4291518344929318e-26  1.4317679639547290e-26  1.4343839521066937e-26  1.4369997986906375e-26  1.4396155034483874e-26  1.4422310661217835e-26  1.4448464864526792e-26  1.4474617641829441e-26  1.4500768990544599e-26  1.4526918908091232e-26  1.4553067391888453e-26  1.4579214439355503e-26  1.4605360047911777e-26  1.4631504214976797e-26  1.4657646937970245e-26  1.4683788214311938e-26  1.4709928041421839e-26  1.4736066416720051e-26  1.4762203337626812e-26  1.4788338801562513e-26  1.4814472805947682e-26  1.4840605348203011e-26  1.4866736425749313e-26  1.4892866036007553e-26  1.4918994176398846e-26  1.4945120844344437e-26  1.4971246037265741e-26  1.4997369752584300e-26  1.5023491987721802e-26  1.5049612740100089e-26  1.5075732007141142e-26  1.5101849786267100e-26  1.5127966074900235e-26  1.5154080870462976e-26  1.5180194170377898e-26  1.5206305972067718e-26  1.5232416272955308e-26  1.5258525070463677e-26  1.5284632362016000e-26  1.5310738145035589e-26  1.5336842416945904e-26  1.5362945175170556e-26  1.5389046417133307e-26  1.5415146140258069e-26  1.5441244341968904e-26  1.5467341019690019e-26  1.5493436170845775e-26  1.5519529792860678e-26  1.5545621883159399e-26  1.5571712439166748e-26  1.5597801458307694e-26  1.5623888938007359e-26  1.5649974875691004e-26  1.5676059268784049e-26  1.5702142114712072e-26  1.5728223410900795e-26  1.5754303154776101e-26  1.5780381343764022e-26  1.5806457975290751e-26  1.5832533046782613e-26  1.5858606555666111e-26  1.5884678499367891e-26  1.5910748875314756e-26  1.5936817680933660e-26  1.5962884913651722e-26  1.5988950570896206e-26  1.6015014650094527e-26  1.6041077148674277e-26  1.6067138064063183e-26  1.6093197393689133e-26  1.6119255134980182e-26  1.6145311285364527e-26  1.6171365842270530e-26  1.6197418803126715e-26  1.6223470165361750e-26  1.6249519926404474e-26  1.6275568083683876e-26  1.6301614634629109e-26  1.6327659576669478e-26  1.6353702907234450e-26  1.6379744623753657e-26  1.6405784723656875e-26  1.6431823204374060e-26  1.6457860063335315e-26  1.6483895297970896e-26  1.6509928905711245e-26  1.6535960883986934e-26  1.6561991230228712e-26  1.6588019941867495e-26  1.6614047016334349e-26  1.6640072451060502e-26  1.6666096243477344e-26  1.6692118391016430e-26  1.6718138891109486e-26  1.6744157741188384e-26  1.6770174938685171e-26  1.6796190481032049e-26  1.6822204365661384e-26  1.6848216590005716e-26  1.6874227151497742e-26  1.6900236047570316e-26  1.6926243275656460e-26  1.6952248833189374e-26  1.6978252717602403e-26  1.7004254926329068e-26  1.7030255456803059e-26  1.7056254306458214e-26  1.7082251472728561e-26  1.7108246953048282e-26  1.7134240744851723e-26  1.7160232845573399e-26  1.7186223252647992e-26  1.7212211963510355e-26  1.7238198975595506e-26  1.7264184286338622e-26  1.7290167893175057e-26  1.7316149793540340e-26  1.7342129984870161e-26  1.7368108464600377e-26  1.7394085230167009e-26  1.7420060279006254e-26  1.7446033608554476e-26  1.7472005216248218e-26  1.7497975099524182e-26  1.7523943255819240e-26  1.7549909682570433e-26  1.7575874377214981e-26  1.7601837337190279e-26  1.7627798559933878e-26  1.7653758042883510e-26  1.7679715783477074e-26  1.7705671779152644e-26  1.7731626027348473e-26  1.7757578525502976e-26  1.7783529271054744e-26  1.7809478261442535e-26  1.7835425494105295e-26  1.7861370966482134e-26  1.7887314676012327e-26  1.7913256620135344e-26  1.7939196796290808e-26  1.7965135201918532e-26  1.7991071834458503e-26  1.8017006691350871e-26  1.8042939770035974e-26  1.8068871067954310e-26  1.8094800582546574e-26  1.8120728311253619e-26  1.8146654251516482e-26  1.8172578400776373e-26  1.8198500756474683e-26  1.8224421316052982e-26  1.8250340076953011e-26  1.8276257036616689e-26  1.8302172192486115e-26  1.8328085542003559e-26  1.8353997082611484e-26  1.8379906811752521e-26  1.8405814726869483e-26  1.8431720825405363e-26  1.8457625104803326e-26  1.8483527562506727e-26  1.8509428195959099e-26  1.8535327002604143e-26  1.8561223979885749e-26  1.8587119125247992e-26  1.8613012436135132e-26  1.8638903909991591e-26  1.8664793544261987e-26  1.8690681336391117e-26  1.8716567283823954e-26  1.8742451384005661e-26  1.8768333634381578e-26  1.8794214032397227e-26  1.8820092575498311e-26  1.8845969261130732e-26  1.8871844086740560e-26  1.8897717049774050e-26  1.8923588147677642e-26  1.8949457377897959e-26  1.8975324737881812e-26  1.9001190225076197e-26  1.9027053836928295e-26  1.9052915570885461e-26  1.9078775424395253e-26  1.9104633394905407e-26  1.9130489479863841e-26  1.9156343676718657e-26  1.9182195982918151e-26  1.9208046395910803e-26  1.9233894913145274e-26  1.9259741532070430e-26  1.9285586250135301e-26  1.9311429064789121e-26  1.9337269973481301e-26  1.9363108973661457e-26  1.9388946062779378e-26  1.9414781238285041e-26  1.9440614497628618e-26  1.9466445838260472e-26  1.9492275257631146e-26  1.9518102753191381e-26  1.9543928322392106e-26  1.9569751962684437e-26  1.9595573671519694e-26  1.9621393446349359e-26  1.9647211284625134e-26  1.9673027183798896e-26  1.9698841141322715e-26  1.9724653154648866e-26  1.9750463221229796e-26  1.9776271338518158e-26  1.9802077503966796e-26  1.9827881715028730e-26  1.9853683969157198e-26  1.9879484263805617e-26  1.9905282596427602e-26  1.9931078964476956e-26  1.9956873365407672e-26  1.9982665796673958e-26  2.0008456255730203e-26  2.0034244740030986e-26  2.0060031247031089e-26  2.0085815774185476e-26  2.0111598318949333e-26  2.0137378878778018e-26  2.0163157451127085e-26  2.0188934033452295e-26  2.0214708623209607e-26  2.0240481217855165e-26  2.0266251814845317e-26  2.0292020411636603e-26  2.0317787005685760e-26  2.0343551594449739e-26  2.0369314175385671e-26  2.0395074745950897e-26  2.0420833303602940e-26  2.0446589845799544e-26  2.0472344369998636e-26  2.0498096873658350e-26  2.0523847354237008e-26  2.0549595809193141e-26  2.0575342235985482e-26  2.0601086632072964e-26  2.0626828994914707e-26  2.0652569321970052e-26  2.0678307610698517e-26  2.0704043858559843e-26  2.0729778063013964e-26  2.0755510221521011e-26  2.0781240331541325e-26  2.0806968390535445e-26  2.0832694395964112e-26  2.0858418345288282e-26  2.0884140235969095e-26  2.0909860065467903e-26  2.0935577831246260e-26  2.0961293530765930e-26  2.0987007161488876e-26  2.1012718720877254e-26  2.1038428206393437e-26  2.1064135615500007e-26  2.1089840945659746e-26  2.1115544194335631e-26  2.1141245358990856e-26  2.1166944437088815e-26  2.1192641426093113e-26  2.1218336323467562e-26  2.1244029126676174e-26  2.1269719833183168e-26  2.1295408440452974e-26  2.1321094945950230e-26  2.1346779347139785e-26  2.1372461641486684e-26  2.1398141826456183e-26  2.1423819899513757e-26  2.1449495858125070e-26  2.1475169699756023e-26  2.1500841421872704e-26  2.1526511021941415e-26  2.1552178497428662e-26  2.1577843845801168e-26  2.1603507064525869e-26  2.1629168151069906e-26  2.1654827102900627e-26  2.1680483917485602e-26  2.1706138592292591e-26  2.1731791124789597e-26  2.1757441512444805e