<?xml version="1.0"?>
<VTKFile type="UnstructuredGrid"  version="0.1"  >
<UnstructuredGrid>
<Piece  NumberOfPoints="20001" NumberOfCells="20000">
<Points>
<DataArray  type="Float64"  NumberOfComponents="3"  format="ascii">0 0 0  5e-05 0 0  0.0001 0 0  0.00015 0 0  0.0002 0 0  0.00025 0 0  0.0003 0 0  0.00035 0 0  0.0004 0 0  0.00045 0 0  0.0005 0 0  0.00055 0 0  0.0005999999999999999 0 0  0.00065 0 0  0.0007 0 0  0.00075 0 0  0.0008 0 0  0.00085 0 0  0.0009 0 0  0.00095 0 0  0.001 0 0  0.00105 0 0  0.0011 0 0  0.00115 0 0  0.0012 0 0  0.00125 0 0  0.0013 0 0  0.00135 0 0  0.0014 0 0  0.00145 0 0  0.0015 0 0  0.00155 0 0  0.0016 0 0  0.00165 0 0  0.0017 0 0  0.00175 0 0  0.0018 0 0  0.00185 0 0  0.0019 0 0  0.00195 0 0  0.002 0 0  0.00205 0 0  0.0021 0 0  0.00215 0 0  0.0022 0 0  0.00225 0 0  0.0023 0 0  0.00235 0 0  0.0024 0 0  0.00245 0 0  0.0025 0 0  0.00255 0 0  0.0026 0 0  0.00265 0 0  0.0027 0 0  0.00275 0 0  0.0028 0 0  0.00285 0 0  0.0029 0 0  0.00295 0 0  0.003 0 0  0.00305 0 0  0.0031 0 0  0.00315 0 0  0.0032 0 0  0.00325 0 0  0.0033 0 0  0.00335 0 0  0.0034 0 0  0.00345 0 0  0.0035 0 0  0.00355 0 0  0.0036 0 0  0.00365 0 0  0.0037 0 0  0.00375 0 0  0.0038 0 0  0.00385 0 0  0.0039 0 0  0.00395 0 0  0.004 0 0  0.00405 0 0  0.0041 0 0  0.00415 0 0  0.0042 0 0  0.00425 0 0  0.0043 0 0  0.00435 0 0  0.0044 0 0  0.00445 0 0  0.0045 0 0  0.00455 0 0  0.0046 0 0  0.00465 0 0  0.0047 0 0  0.00475 0 0  0.0048 0 0  0.00485 0 0  0.0049 0 0  0.00495 0 0  0.005 0 0  0.00505 0 0  0.0051 0 0  0.00515 0 0  0.0052 0 0  0.00525 0 0  0.0053 0 0  0.00535 0 0  0.0054 0 0  0.00545 0 0  0.0055 0 0  0.00555 0 0  0.0056 0 0  0.00565 0 0  0.0057 0 0  0.00575 0 0  0.0058 0 0  0.00585 0 0  0.0059 0 0  0.00595 0 0  0.006 0 0  0.00605 0 0  0.0061 0 0  0.00615 0 0  0.0062 0 0  0.00625 0 0  0.0063 0 0  0.00635 0 0  0.0064 0 0  0.00645 0 0  0.0065 0 0  0.00655 0 0  0.0066 0 0  0.00665 0 0  0.0067 0 0  0.00675 0 0  0.0068 0 0  0.00685 0 0  0.0069 0 0  0.00695 0 0  0.007 0 0  0.00705 0 0  0.0071 0 0  0.00715 0 0  0.0072 0 0  0.00725 0 0  0.0073 0 0  0.00735 0 0  0.0074 0 0  0.00745 0 0  0.0075 0 0  0.00755 0 0  0.0076 0 0  0.00765 0 0  0.0077 0 0  0.00775 0 0  0.0078 0 0  0.007849999999999999 0 0  0.007900000000000001 0 0  0.00795 0 0  0.008 0 0  0.00805 0 0  0.0081 0 0  0.008149999999999999 0 0  0.008200000000000001 0 0  0.00825 0 0  0.0083 0 0  0.00835 0 0  0.008399999999999999 0 0  0.008449999999999999 0 0  0.008500000000000001 0 0  0.00855 0 0  0.0086 0 0  0.00865 0 0  0.008699999999999999 0 0  0.008750000000000001 0 0  0.008800000000000001 0 0  0.00885 0 0  0.0089 0 0  0.00895 0 0  0.008999999999999999 0 0  0.009050000000000001 0 0  0.0091 0 0  0.00915 0 0  0.0092 0 0  0.00925 0 0  0.009299999999999999 0 0  0.009350000000000001 0 0  0.0094 0 0  0.00945 0 0  0.0095 0 0  0.009549999999999999 0 0  0.009599999999999999 0 0  0.009650000000000001 0 0  0.0097 0 0  0.00975 0 0  0.0098 0 0  0.009849999999999999 0 0  0.009900000000000001 0 0  0.009950000000000001 0 0  0.01 0 0  0.01005 0 0  0.0101 0 0  0.01015 0 0  0.0102 0 0  0.01025 0 0  0.0103 0 0  0.01035 0 0  0.0104 0 0  0.01045 0 0  0.0105 0 0  0.01055 0 0  0.0106 0 0  0.01065 0 0  0.0107 0 0  0.01075 0 0  0.0108 0 0  0.01085 0 0  0.0109 0 0  0.01095 0 0  0.011 0 0  0.01105 0 0  0.0111 0 0  0.01115 0 0  0.0112 0 0  0.01125 0 0  0.0113 0 0  0.01135 0 0  0.0114 0 0  0.01145 0 0  0.0115 0 0  0.01155 0 0  0.0116 0 0  0.01165 0 0  0.0117 0 0  0.01175 0 0  0.0118 0 0  0.01185 0 0  0.0119 0 0  0.01195 0 0  0.012 0 0  0.01205 0 0  0.0121 0 0  0.01215 0 0  0.0122 0 0  0.01225 0 0  0.0123 0 0  0.01235 0 0  0.0124 0 0  0.01245 0 0  0.0125 0 0  0.01255 0 0  0.0126 0 0  0.01265 0 0  0.0127 0 0  0.01275 0 0  0.0128 0 0  0.01285 0 0  0.0129 0 0  0.01295 0 0  0.013 0 0  0.01305 0 0  0.0131 0 0  0.01315 0 0  0.0132 0 0  0.01325 0 0  0.0133 0 0  0.01335 0 0  0.0134 0 0  0.01345 0 0  0.0135 0 0  0.01355 0 0  0.0136 0 0  0.01365 0 0  0.0137 0 0  0.01375 0 0  0.0138 0 0  0.01385 0 0  0.0139 0 0  0.01395 0 0  0.014 0 0  0.01405 0 0  0.0141 0 0  0.01415 0 0  0.0142 0 0  0.01425 0 0  0.0143 0 0  0.01435 0 0  0.0144 0 0  0.01445 0 0  0.0145 0 0  0.01455 0 0  0.0146 0 0  0.01465 0 0  0.0147 0 0  0.01475 0 0  0.0148 0 0  0.01485 0 0  0.0149 0 0  0.01495 0 0  0.015 0 0  0.01505 0 0  0.0151 0 0  0.01515 0 0  0.0152 0 0  0.01525 0 0  0.0153 0 0  0.01535 0 0  0.0154 0 0  0.01545 0 0  0.0155 0 0  0.01555 0 0  0.0156 0 0  0.01565 0 0  0.0157 0 0  0.01575 0 0  0.0158 0 0  0.01585 0 0  0.0159 0 0  0.01595 0 0  0.016 0 0  0.01605 0 0  0.0161 0 0  0.01615 0 0  0.0162 0 0  0.01625 0 0  0.0163 0 0  0.01635 0 0  0.0164 0 0  0.01645 0 0  0.0165 0 0  0.01655 0 0  0.0166 0 0  0.01665 0 0  0.0167 0 0  0.01675 0 0  0.0168 0 0  0.01685 0 0  0.0169 0 0  0.01695 0 0  0.017 0 0  0.01705 0 0  0.0171 0 0  0.01715 0 0  0.0172 0 0  0.01725 0 0  0.0173 0 0  0.01735 0 0  0.0174 0 0  0.01745 0 0  0.0175 0 0  0.01755 0 0  0.0176 0 0  0.01765 0 0  0.0177 0 0  0.01775 0 0  0.0178 0 0  0.01785 0 0  0.0179 0 0  0.01795 0 0  0.018 0 0  0.01805 0 0  0.0181 0 0  0.01815 0 0  0.0182 0 0  0.01825 0 0  0.0183 0 0  0.01835 0 0  0.0184 0 0  0.01845 0 0  0.0185 0 0  0.01855 0 0  0.0186 0 0  0.01865 0 0  0.0187 0 0  0.01875 0 0  0.0188 0 0  0.01885 0 0  0.0189 0 0  0.01895 0 0  0.019 0 0  0.01905 0 0  0.0191 0 0  0.01915 0 0  0.0192 0 0  0.01925 0 0  0.0193 0 0  0.01935 0 0  0.0194 0 0  0.01945 0 0  0.0195 0 0  0.01955 0 0  0.0196 0 0  0.01965 0 0  0.0197 0 0  0.01975 0 0  0.0198 0 0  0.01985 0 0  0.0199 0 0  0.01995 0 0  0.02 0 0  0.02005 0 0  0.0201 0 0  0.02015 0 0  0.0202 0 0  0.02025 0 0  0.0203 0 0  0.02035 0 0  0.0204 0 0  0.02045 0 0  0.0205 0 0  0.02055 0 0  0.0206 0 0  0.02065 0 0  0.0207 0 0  0.02075 0 0  0.0208 0 0  0.02085 0 0  0.0209 0 0  0.02095 0 0  0.021 0 0  0.02105 0 0  0.0211 0 0  0.02115 0 0  0.0212 0 0  0.02125 0 0  0.0213 0 0  0.02135 0 0  0.0214 0 0  0.02145 0 0  0.0215 0 0  0.02155 0 0  0.0216 0 0  0.02165 0 0  0.0217 0 0  0.02175 0 0  0.0218 0 0  0.02185 0 0  0.0219 0 0  0.02195 0 0  0.022 0 0  0.02205 0 0  0.0221 0 0  0.02215 0 0  0.0222 0 0  0.02225 0 0  0.0223 0 0  0.02235 0 0  0.0224 0 0  0.02245 0 0  0.0225 0 0  0.02255 0 0  0.0226 0 0  0.02265 0 0  0.0227 0 0  0.02275 0 0  0.0228 0 0  0.02285 0 0  0.0229 0 0  0.02295 0 0  0.023 0 0  0.02305 0 0  0.0231 0 0  0.02315 0 0  0.0232 0 0  0.02325 0 0  0.0233 0 0  0.02335 0 0  0.0234 0 0  0.02345 0 0  0.0235 0 0  0.02355 0 0  0.0236 0 0  0.02365 0 0  0.0237 0 0  0.02375 0 0  0.0238 0 0  0.02385 0 0  0.0239 0 0  0.02395 0 0  0.024 0 0  0.02405 0 0  0.0241 0 0  0.02415 0 0  0.0242 0 0  0.02425 0 0  0.0243 0 0  0.02435 0 0  0.0244 0 0  0.02445 0 0  0.0245 0 0  0.02455 0 0  0.0246 0 0  0.02465 0 0  0.0247 0 0  0.02475 0 0  0.0248 0 0  0.02485 0 0  0.0249 0 0  0.02495 0 0  0.025 0 0  0.02505 0 0  0.0251 0 0  0.02515 0 0  0.0252 0 0  0.02525 0 0  0.0253 0 0  0.02535 0 0  0.0254 0 0  0.02545 0 0  0.0255 0 0  0.02555 0 0  0.0256 0 0  0.02565 0 0  0.0257 0 0  0.02575 0 0  0.0258 0 0  0.02585 0 0  0.0259 0 0  0.02595 0 0  0.026 0 0  0.02605 0 0  0.0261 0 0  0.02615 0 0  0.0262 0 0  0.02625 0 0  0.0263 0 0  0.02635 0 0  0.0264 0 0  0.02645 0 0  0.0265 0 0  0.02655 0 0  0.0266 0 0  0.02665 0 0  0.0267 0 0  0.02675 0 0  0.0268 0 0  0.02685 0 0  0.0269 0 0  0.02695 0 0  0.027 0 0  0.02705 0 0  0.0271 0 0  0.02715 0 0  0.0272 0 0  0.02725 0 0  0.0273 0 0  0.02735 0 0  0.0274 0 0  0.02745 0 0  0.0275 0 0  0.02755 0 0  0.0276 0 0  0.02765 0 0  0.0277 0 0  0.02775 0 0  0.0278 0 0  0.02785 0 0  0.0279 0 0  0.02795 0 0  0.028 0 0  0.02805 0 0  0.0281 0 0  0.02815 0 0  0.0282 0 0  0.02825 0 0  0.0283 0 0  0.02835 0 0  0.0284 0 0  0.02845 0 0  0.0285 0 0  0.02855 0 0  0.0286 0 0  0.02865 0 0  0.0287 0 0  0.02875 0 0  0.0288 0 0  0.02885 0 0  0.0289 0 0  0.02895 0 0  0.029 0 0  0.02905 0 0  0.0291 0 0  0.02915 0 0  0.0292 0 0  0.02925 0 0  0.0293 0 0  0.02935 0 0  0.0294 0 0  0.02945 0 0  0.0295 0 0  0.02955 0 0  0.0296 0 0  0.02965 0 0  0.0297 0 0  0.02975 0 0  0.0298 0 0  0.02985 0 0  0.0299 0 0  0.02995 0 0  0.03 0 0  0.03005 0 0  0.0301 0 0  0.03015 0 0  0.0302 0 0  0.03025 0 0  0.0303 0 0  0.03035 0 0  0.0304 0 0  0.03045 0 0  0.0305 0 0  0.03055 0 0  0.0306 0 0  0.03065 0 0  0.0307 0 0  0.03075 0 0  0.0308 0 0  0.03085 0 0  0.0309 0 0  0.03095 0 0  0.031 0 0  0.03105 0 0  0.0311 0 0  0.03115 0 0  0.0312 0 0  0.03125 0 0  0.0313 0 0  0.03135 0 0  0.0314 0 0  0.03145 0 0  0.0315 0 0  0.03155 0 0  0.0316 0 0  0.03165 0 0  0.0317 0 0  0.03175 0 0  0.0318 0 0  0.03185 0 0  0.0319 0 0  0.03195 0 0  0.032 0 0  0.03205 0 0  0.0321 0 0  0.03215 0 0  0.0322 0 0  0.03225 0 0  0.0323 0 0  0.03235 0 0  0.0324 0 0  0.03245 0 0  0.0325 0 0  0.03255 0 0  0.0326 0 0  0.03265 0 0  0.0327 0 0  0.03275 0 0  0.0328 0 0  0.03285 0 0  0.0329 0 0  0.03295 0 0  0.033 0 0  0.03305 0 0  0.0331 0 0  0.03315 0 0  0.0332 0 0  0.03325 0 0  0.0333 0 0  0.03335 0 0  0.0334 0 0  0.03345 0 0  0.0335 0 0  0.03355 0 0  0.0336 0 0  0.03365 0 0  0.0337 0 0  0.03375 0 0  0.0338 0 0  0.03385 0 0  0.0339 0 0  0.03395 0 0  0.034 0 0  0.03405 0 0  0.0341 0 0  0.03415 0 0  0.0342 0 0  0.03425 0 0  0.0343 0 0  0.03435 0 0  0.0344 0 0  0.03445 0 0  0.0345 0 0  0.03455 0 0  0.0346 0 0  0.03465 0 0  0.0347 0 0  0.03475 0 0  0.0348 0 0  0.03485 0 0  0.0349 0 0  0.03495 0 0  0.035 0 0  0.03505 0 0  0.0351 0 0  0.03515 0 0  0.0352 0 0  0.03525 0 0  0.0353 0 0  0.03535 0 0  0.0354 0 0  0.03545 0 0  0.0355 0 0  0.03555 0 0  0.0356 0 0  0.03565 0 0  0.0357 0 0  0.03575 0 0  0.0358 0 0  0.03585 0 0  0.0359 0 0  0.03595 0 0  0.036 0 0  0.03605 0 0  0.0361 0 0  0.03615 0 0  0.0362 0 0  0.03625 0 0  0.0363 0 0  0.03635 0 0  0.0364 0 0  0.03645 0 0  0.0365 0 0  0.03655 0 0  0.0366 0 0  0.03665 0 0  0.0367 0 0  0.03675 0 0  0.0368 0 0  0.03685 0 0  0.0369 0 0  0.03695 0 0  0.037 0 0  0.03705 0 0  0.0371 0 0  0.03715 0 0  0.0372 0 0  0.03725 0 0  0.0373 0 0  0.03735 0 0  0.0374 0 0  0.03745 0 0  0.0375 0 0  0.03755 0 0  0.0376 0 0  0.03765 0 0  0.0377 0 0  0.03775 0 0  0.0378 0 0  0.03785 0 0  0.0379 0 0  0.03795 0 0  0.038 0 0  0.03805 0 0  0.0381 0 0  0.0
[...]
<PointData  Scalars="f_13"> 
<DataArray  type="Float64"  Name="f_13"  format="ascii">-3.6788805264827818e+02  -3.6788549700717823e+02  -3.6788221435831269e+02  -3.6787820470829723e+02  -3.6787346806486005e+02  -3.6786800443684194e+02  -3.6786181383419466e+02  -3.6785489626798153e+02  -3.6784725175037863e+02  -3.6783888029467437e+02  -3.6782978191526780e+02  -3.6781995662767002e+02  -3.6780940444850387e+02  -3.6779812539550488e+02  -3.6778611948751910e+02  -3.6777338674450476e+02  -3.6775992718753162e+02  -3.6774574083878088e+02  -3.6773082772154635e+02  -3.6771518786023324e+02  -3.6769882128035857e+02  -3.6768172800855035e+02  -3.6766390807254771e+02  -3.6764536150120205e+02  -3.6762608832447637e+02  -3.6760608857344516e+02  -3.6758536228029482e+02  -3.6756390947832273e+02  -3.6754173020193770e+02  -3.6751882448665981e+02  -3.6749519236912170e+02  -3.6747083388706619e+02  -3.6744574907934839e+02  -3.6741993798593330e+02  -3.6739340064789792e+02  -3.6736613710743126e+02  -3.6733814740783259e+02  -3.6730943159351233e+02  -3.6727998970999323e+02  -3.6724982180390816e+02  -3.6721892792300076e+02  -3.6718730811612681e+02  -3.6715496243325242e+02  -3.6712189092545378e+02  -3.6708809364491941e+02  -3.6705357064494825e+02  -3.6701832197995003e+02  -3.6698234770544587e+02  -3.6694564787806701e+02  -3.6690822255555605e+02  -3.6687007179676601e+02  -3.6683119566165993e+02  -3.6679159421131203e+02  -3.6675126750790724e+02  -3.6671021561474112e+02  -3.6666843859621929e+02  -3.6662593651785767e+02  -3.6658270944628276e+02  -3.6653875744923147e+02  -3.6649408059555151e+02  -3.6644867895520031e+02  -3.6640255259924538e+02  -3.6635570159986457e+02  -3.6630812603034497e+02  -3.6625982596508476e+02  -3.6621080147959157e+02  -3.6616105265048350e+02  -3.6611057955548847e+02  -3.6605938227344353e+02  -3.6600746088429582e+02  -3.6595481546910236e+02  -3.6590144611003012e+02  -3.6584735289035501e+02  -3.6579253589446279e+02  -3.6573699520784879e+02  -3.6568073091711716e+02  -3.6562374310998183e+02  -3.6556603187526594e+02  -3.6550759730290224e+02  -3.6544843948393225e+02  -3.6538855851050744e+02  -3.6532795447588740e+02  -3.6526662747444067e+02  -3.6520457760164510e+02  -3.6514180495408772e+02  -3.6507830962946332e+02  -3.6501409172657623e+02  -3.6494915134533920e+02  -3.6488348858677386e+02  -3.6481710355300964e+02  -3.6474999634728471e+02  -3.6468216707394578e+02  -3.6461361583844734e+02  -3.6454434274735269e+02  -3.6447434790833256e+02  -3.6440363143016691e+02  -3.6433219342274248e+02  -3.6426003399705451e+02  -3.6418715326520584e+02  -3.6411355134040758e+02  -3.6403922833697777e+02  -3.6396418437034214e+02  -3.6388841955703441e+02  -3.6381193401469557e+02  -3.6373472786207452e+02  -3.6365680121902693e+02  -3.6357815420651491e+02  -3.6349878694660862e+02  -3.6341869956248485e+02  -3.6333789217842752e+02  -3.6325636491982715e+02  -3.6317411791318159e+02  -3.6309115128609500e+02  -3.6300746516727804e+02  -3.6292305968654836e+02  -3.6283793497482975e+02  -3.6275209116415260e+02  -3.6266552838765307e+02  -3.6257824677957421e+02  -3.6249024647526454e+02  -3.6240152761117861e+02  -3.6231209032487629e+02  -3.6222193475502417e+02  -3.6213106104139348e+02  -3.6203946932486213e+02  -3.6194715974741302e+02  -3.6185413245213425e+02  -3.6176038758321948e+02  -3.6166592528596755e+02  -3.6157074570678225e+02  -3.6147484899317232e+02  -3.6137823529375208e+02  -3.6128090475823990e+02  -3.6118285753745886e+02  -3.6108409378333687e+02  -3.6098461364890653e+02  -3.6088441728830435e+02  -3.6078350485677197e+02  -3.6068187651065460e+02  -3.6057953240740113e+02  -3.6047647270556519e+02  -3.6037269756480356e+02  -3.6026820714587734e+02  -3.6016300161065101e+02  -3.6005708112209300e+02  -3.5995044584427450e+02  -3.5984309594237033e+02  -3.5973503158265800e+02  -3.5962625293251909e+02  -3.5951676016043729e+02  -3.5940655343599906e+02  -3.5929563292989428e+02  -3.5918399881391497e+02  -3.5907165126095606e+02  -3.5895859044501429e+02  -3.5884481654118895e+02  -3.5873032972568194e+02  -3.5861513017579705e+02  -3.5849921806993945e+02  -3.5838259358761638e+02  -3.5826525690943618e+02  -3.5814720821710961e+02  -3.5802844769344875e+02  -3.5790897552236703e+02  -3.5778879188887845e+02  -3.5766789697909792e+02  -3.5754629098024179e+02  -3.5742397408062692e+02  -3.5730094646967109e+02  -3.5717720833789298e+02  -3.5705275987691084e+02  -3.5692760127944291e+02  -3.5680173273930848e+02  -3.5667515445142686e+02  -3.5654786661181703e+02  -3.5641986941759819e+02  -3.5629116306698819e+02  -3.5616174775930494e+02  -3.5603162369496573e+02  -3.5590079107548746e+02  -3.5576925010348526e+02  -3.5563700098267321e+02  -3.5550404391786435e+02  -3.5537037911497117e+02  -3.5523600678100377e+02  -3.5510092712407101e+02  -3.5496514035337941e+02  -3.5482864667923457e+02  -3.5469144631303914e+02  -3.5455353946729338e+02  -3.5441492635559570e+02  -3.5427560719264221e+02  -3.5413558219422623e+02  -3.5399485157723836e+02  -3.5385341555966676e+02  -3.5371127436059555e+02  -3.5356842820020643e+02  -3.5342487729977739e+02  -3.5328062188168349e+02  -3.5313566216939580e+02  -3.5298999838748091e+02  -3.5284363076160236e+02  -3.5269655951851888e+02  -3.5254878488608443e+02  -3.5240030709325003e+02  -3.5225112637006140e+02  -3.5210124294765939e+02  -3.5195065705827994e+02  -3.5179936893525473e+02  -3.5164737881300931e+02  -3.5149468692706449e+02  -3.5134129351403521e+02  -3.5118719881163116e+02  -3.5103240305865563e+02  -3.5087690649500604e+02  -3.5072070936167341e+02  -3.5056381190074325e+02  -3.5040621435539413e+02  -3.5024791696989723e+02  -3.5008891998961769e+02  -3.4992922366101430e+02  -3.4976882823163675e+02  -3.4960773395012882e+02  -3.4944594106622674e+02  -3.4928344983075925e+02  -3.4912026049564685e+02  -3.4895637331390196e+02  -3.4879178853962901e+02  -3.4862650642802453e+02  -3.4846052723537571e+02  -3.4829385121906108e+02  -3.4812647863755024e+02  -3.4795840975040443e+02  -3.4778964481827546e+02  -3.4762018410290574e+02  -3.4745002786712826e+02  -3.4727917637486576e+02  -3.4710762989113186e+02  -3.4693538868202899e+02  -3.4676245301474984e+02  -3.4658882315757683e+02  -3.4641449937988136e+02  -3.4623948195212370e+02  -3.4606377114585433e+02  -3.4588736723371102e+02  -3.4571027048942142e+02  -3.4553248118780078e+02  -3.4535399960475354e+02  -3.4517482601727136e+02  -3.4499496070343389e+02  -3.4481440394240826e+02  -3.4463315601444981e+02  -3.4445121720090020e+02  -3.4426858778418921e+02  -3.4408526804783315e+02  -3.4390125827643487e+02  -3.4371655875568376e+02  -3.4353116977235618e+02  -3.4334509161431367e+02  -3.4315832457050431e+02  -3.4297086893096161e+02  -3.4278272498680508e+02  -3.4259389303023983e+02  -3.4240437335455505e+02  -3.4221416625412604e+02  -3.4202327202441217e+02  -3.4183169096195786e+02  -3.4163942336439158e+02  -3.4144646953042576e+02  -3.4125282975985726e+02  -3.4105850435356643e+02  -3.4086349361351739e+02  -3.4066779784275752e+02  -3.4047141734541691e+02  -3.4027435242670936e+02  -3.4007660339293034e+02  -3.3987817055145899e+02  -3.3967905421075614e+02  -3.3947925468036487e+02  -3.3927877227091045e+02  -3.3907760729409881e+02  -3.3887576006271843e+02  -3.3867323089063899e+02  -3.3847002009281056e+02  -3.3826612798526384e+02  -3.3806155488511115e+02  -3.3785630111054536e+02  -3.3765036698083850e+02  -3.3744375281634314e+02  -3.3723645893849090e+02  -3.3702848566979372e+02  -3.3681983333384289e+02  -3.3661050225530823e+02  -3.3640049275993903e+02  -3.3618980517456248e+02  -3.3597843982708531e+02  -3.3576639704649176e+02  -3.3555367716284377e+02  -3.3534028050728119e+02  -3.3512620741202204e+02  -3.3491145821036059e+02  -3.3469603323666814e+02  -3.3447993282639368e+02  -3.3426315731606269e+02  -3.3404570704327739e+02  -3.3382758234671530e+02  -3.3360878356613085e+02  -3.3338931104235371e+02  -3.3316916511728886e+02  -3.3294834613391635e+02  -3.3272685443629115e+02  -3.3250469036954365e+02  -3.3228185427987825e+02  -3.3205834651457343e+02  -3.3183416742198250e+02  -3.3160931735153201e+02  -3.3138379665372258e+02  -3.3115760568012797e+02  -3.3093074478339474e+02  -3.3070321431724267e+02  -3.3047501463646415e+02  -3.3024614609692424e+02  -3.3001660905555940e+02  -3.2978640387037831e+02  -3.2955553090046089e+02  -3.2932399050595961e+02  -3.2909178304809774e+02  -3.2885890888916884e+02  -3.2862536839253750e+02  -3.2839116192263856e+02  -3.2815628984497670e+02  -3.2792075252612676e+02  -3.2768455033373419e+02  -3.2744768363651281e+02  -3.2721015280424564e+02  -3.2697195820778524e+02  -3.2673310021905218e+02  -3.2649357921103569e+02  -3.2625339555779340e+02  -3.2601254963445081e+02  -3.2577104181720074e+02  -3.2552887248330370e+02  -3.2528604201108652e+02  -3.2504255077994367e+02  -3.2479839917033604e+02  -3.2455358756379064e+02  -3.2430811634290092e+02  -3.2406198589132606e+02  -3.2381519659379086e+02  -3.2356774883608512e+02  -3.2331964300506405e+02  -3.2307087948864756e+02  -3.2282145867581983e+02  -3.2257138095662947e+02  -3.2232064672218814e+02  -3.2206925636467230e+02  -3.2181721027732192e+02  -3.2156450885443951e+02  -3.2131115249139054e+02  -3.2105714158460336e+02  -3.2080247653156817e+02  -3.2054715773083763e+02  -3.2029118558202634e+02  -3.2003456048580995e+02  -3.1977728284392538e+02  -3.1951935305917044e+02  -3.1926077153540410e+02  -3.1900153867754540e+02  -3.1874165489157417e+02  -3.1848112058452938e+02  -3.1821993616450959e+02  -3.1795810204067340e+02  -3.1769561862323758e+02  -3.1743248632347814e+02  -3.1716870555372964e+02  -3.1690427672738394e+02  -3.1663920025889166e+02  -3.1637347656376045e+02  -3.1610710605855542e+02  -3.1584008916089886e+02  -3.1557242628947006e+02  -3.1530411786400441e+02  -3.1503516430529305e+02  -3.1476556603518372e+02  -3.1449532347657885e+02  -3.1422443705343693e+02  -3.1395290719077155e+02  -3.1368073431465058e+02  -3.1340791885219653e+02  -3.1313446123158536e+02  -3.1286036188204730e+02  -3.1258562123386605e+02  -3.1231023971837908e+02  -3.1203421776797592e+02  -3.1175755581609906e+02  -3.1148025429724350e+02  -3.1120231364695638e+02  -3.1092373430183534e+02  -3.1064451669953002e+02  -3.1036466127874178e+02  -3.1008416847922234e+02  -3.0980303874177417e+02  -3.0952127250825021e+02  -3.0923887022155213e+02  -3.0895583232563217e+02  -3.0867215926549164e+02  -3.0838785148718108e+02  -3.0810290943779916e+02  -3.0781733356549290e+02  -3.0753112431945794e+02  -3.0724428214993742e+02  -3.0695680750822174e+02  -3.0666870084664845e+02  -3.0637996261860206e+02  -3.0609059327851344e+02  -3.0580059328185939e+02  -3.0550996308516306e+02  -3.0521870314599255e+02  -3.0492681392296157e+02  -3.0463429587572818e+02  -3.0434114946499551e+02  -3.0404737515251105e+02  -3.0375297340106630e+02  -3.0345794467449588e+02  -3.0316228943767788e+02  -3.0286600815653316e+02  -3.0256910129802623e+02  -3.0227156933016255e+02  -3.0197341272198940e+02  -3.0167463194359703e+02  -3.0137522746611609e+02  -3.0107519976171835e+02  -3.0077454930361682e+02  -3.0047327656606433e+02  -3.0017138202435342e+02  -2.9986886615481717e+02  -2.9956572943482735e+02  -2.9926197234279516e+02  -2.9895759535817018e+02  -2.9865259896144022e+02  -2.9834698363413156e+02  -2.9804074985880811e+02  -2.9773389811907077e+02  -2.9742642889955732e+02  -2.9711834268594288e+02  -2.9680963996493824e+02  -2.9650032122428996e+02  -2.9619038695278164e+02  -2.9587983764023090e+02  -2.9556867377749063e+02  -2.9525689585644801e+02  -2.9494450437002467e+02  -2.9463149981217680e+02  -2.9431788267789318e+02  -2.9400365346319683e+02  -2.9368881266514285e+02  -2.9337336078181909e+02  -2.9305729831234532e+02  -2.9274062575687367e+02  -2.9242334361658732e+02  -2.9210545239370055e+02  -2.9178695259145877e+02  -2.9146784471413787e+02  -2.9114812926704354e+02  -2.9082780675651151e+02  -2.9050687768990639e+02  -2.9018534257562192e+02  -2.8986320192308028e+02  -2.8954045624273220e+02  -2.8921710604605647e+02  -2.8889315184555920e+02  -2.8856859415477373e+02  -2.8824343348825971e+02  -2.8791767036160434e+02  -2.8759130529142078e+02  -2.8726433879534738e+02  -2.8693677139204783e+02  -2.8660860360121120e+02  -2.8627983594355152e+02  -2.8595046894080673e+02  -2.8562050311573836e+02  -2.8528993899213231e+02  -2.8495877709479697e+02  -2.8462701794956359e+02  -2.8429466208328569e+02  -2.8396171002383915e+02  -2.8362816230012203e+02  -2.8329401944205284e+02  -2.8295928198057175e+02  -2.8262395044763889e+02  -2.8228802537623517e+02  -2.8195150730036090e+02  -2.8161439675503578e+02  -2.8127669427629866e+02  -2.8093840040120699e+02  -2.8059951566783695e+02  -2.8026004061528215e+02  -2.7991997578365368e+02  -2.7957932171408049e+02  -2.7923807894870765e+02  -2.7889624803069745e+02  -2.7855382950422705e+02  -2.7821082391448959e+02  -2.7786723180769332e+02  -2.7752305373106196e+02  -2.7717829023283286e+02  -2.7683294186225766e+02  -2.7648700916960132e+02  -2.7614049270614299e+02  -2.7579339302417407e+02  -2.7544571067699894e+02  -2.7509744621893344e+02  -2.7474860020530588e+02  -2.7439917319245529e+02  -2.7404916573773119e+02  -2.7369857839949407e+02  -2.7334741173711512e+02  -2.7299566631097468e+02  -2.7264334268246262e+02  -2.7229044141397753e+02  -2.7193696306892656e+02  -2.7158290821172449e+02  -2.7122827740779434e+02  -2.7087307122356657e+02  -2.7051729022647834e+02  -2.7016093498497287e+02  -2.6980400606850014e+02  -2.6944650404751508e+02  -2.6908842949347832e+02  -2.6872978297885521e+02  -2.6837056507711571e+02  -2.6801077636273413e+02  -2.6765041741118773e+02  -2.6728948879895722e+02  -2.6692799110352672e+02  -2.6656592490338193e+02  -2.6620329077801034e+02  -2.6584008930790185e+02  -2.6547632107454706e+02  -2.6511198666043725e+02  -2.6474708664906387e+02  -2.6438162162491852e+02  -2.6401559217349256e+02  -2.6364899888127593e+02  -2.6328184233575752e+02  -2.6291412312542417e+02  -2.6254584183976044e+02  -2.6217699906924844e+02  -2.6180759540536684e+02  -2.6143763144059119e+02  -2.6106710776839287e+02  -2.6069602498323877e+02  -2.6032438368059150e+02  -2.5995218445690779e+02  -2.5957942790963904e+02  -2.5920611463723077e+02  -2.5883224523912213e+02  -2.5845782031574441e+02  -2.5808284046852208e+02  -2.5770730629987213e+02  -2.5733121841320343e+02  -2.5695457741291563e+02  -2.5657738390439914e+02  -2.5619963849403496e+02  -2.5582134178919435e+02  -2.5544249439823784e+02  -2.5506309693051517e+02  -2.5468314999636502e+02  -2.5430265420711393e+02  -2.5392161017507678e+02  -2.5354001851355500e+02  -2.5315787983683759e+02  -2.5277519476019970e+02  -2.5239196389990261e+02  -2.5200818787319307e+02  -2.5162386729830283e+02  -2.5123900279444837e+02  -2.5085359498183047e+02  -2.5046764448163358e+02  -2.5008115191602576e+02  -2.4969411790815730e+02  -2.4930654308216114e+02  -2.4891842806315228e+02  -2.4852977347722745e+02  -2.4814057995146433e+02  -2.4775084811392097e+02  -2.4736057859363589e+02  -2.4696977202062664e+02  -2.4657842902589022e+02  -2.4618655024140293e+02  -2.4579413630011916e+02  -2.4540118783597063e+02  -2.4500770548386674e+02  -2.4461368987969379e+02  -2.4421914166031453e+02  -2.4382406146356755e+02  -2.4342844992826690e+02  -2.4303230769420185e+02  -2.4263563540213590e+02  -2.4223843369380666e+02  -2.4184070321192539e+02  -2.4144244460017688e+02  -2.4104365850321838e+02  -2.4064434556667928e+02  -2.4024450643716065e+02  -2.3984414176223535e+02  -2.3944325219044626e+02  -2.3904183837130674e+02  -2.3863990095530013e+02  -2.3823744059387909e+02  -2.3783445793946493e+02  -2.3743095364544763e+02  -2.3702692836618482e+02  -2.3662238275700156e+02  -2.3621731747419034e+02  -2.3581173317500938e+02  -2.3540563051768325e+02  -2.3499901016140205e+02  -2.3459187276632068e+02  -2.3418421899355894e+02  -2.3377604950520023e+02  -2.3336736496429148e+02  -2.3295816603484283e+02  -2.3254845338182716e+02  -2.3213822767117915e+02  -2.3172748956979538e+02  -2.3131623974553284e+02  -2.3090447886720943e+02  -2.3049220760460295e+02  -2.3007942662845116e+02  -2.2966613661045048e+02  -2.2925233822325583e+02  -2.2883803214048092e+02  -2.2842321903669691e+02  -2.2800789958743158e+02  -2.2759207446916969e+02  -2.2717574435935200e+02  -2.2675890993637461e+02  -2.2634157187958917e+02  -2.2592373086930149e+02  -2.2550538758677172e+02  -2.2508654271421321e+02  -2.2466719693479274e+02  -2.2424735093262922e+02  -2.2382700539279378e+02  -2.2340616100130939e+02  -2.2298481844514950e+02  -2.2256297841223841e+02  -2.2214064159145042e+02  -2.2171780867260966e+02  -2.2129448034648848e+02  -2.2087065730480785e+02  -2.2044634024023685e+02  -2.2002152984639210e+02  -2.1959622681783671e+02  -2.1917043185008043e+02  -2.1874414563957851e+02  -2.1831736888373194e+02  -2.1789010228088625e+02  -2.1746234653033122e+02  -2.1703410233230056e+02  -2.1660537038797119e+02  -2.1617615139946264e+02  -2.1574644606983642e+02  -2.1531625510309621e+02  -2.1488557920418643e+02  -2.1445441907899229e+02  -2.1402277543433888e+02  -2.1359064897799084e+02  -2.1315804041865175e+02  -2.1272495046596384e+02  -2.1229137983050677e+02  -2.1185732922379805e+02  -2.1142279935829180e+02  -2.1098779094737856e+02  -2.1055230470538442e+02  -2.1011634134757105e+02  -2.0967990159013476e+02  -2.0924298615020598e+02  -2.0880559574584868e+02  -2.0836773109605986e+02  -2.0792939292076920e+02  -2.0749058194083847e+02  -2.0705129887806066e+02  -2.0661154445515945e+02  -2.0617131939578920e+02  -2.0573062442453389e+02  -2.0528946026690701e+02  -2.0484782764935048e+02  -2.0440572729923426e+02  -2.0396315994485582e+02  -2.0352012631544014e+02  -2.0307662714113826e+02  -2.0263266315302769e+02  -2.0218823508311073e+02  -2.0174334366431427e+02  -2.0129798963049015e+02  -2.0085217371641363e+02  -2.0040589665778299e+02  -1.9995915919121927e+02  -1.9951196205426552e+02  -1.9906430598538589e+02  -1.9861619172396553e+02  -1.9816762001031020e+02  -1.9771859158564536e+02  -1.9726910719211597e+02  -1.9681916757278495e+02  -1.9636877347163338e+02  -1.9591792563356040e+02  -1.9546662480438152e+02  -1.9501487173082870e+02  -1.9456266716054958e+02  -1.9411001184210718e+02  -1.9365690652497904e+02  -1.9320335195955681e+02  -1.9274934889714561e+02  -1.9229489808996328e+02  -1.9184000029113992e+02  -1.9138465625471778e+02  -1.9092886673564985e+02  -1.9047263248979979e+02  -1.9001595427394176e+02  -1.8955883284575859e+02  -1.8910126896384236e+02  -1.8864326338769374e+02  -1.8818481687772058e+02  -1.8772593019523759e+02  -1.8726660410246660e+02  -1.8680683936253507e+02  -1.8634663673947563e+02  -1.8588599699822564e+02  -1.8542492090462650e+02  -1.8496340922542350e+02  -1.8450146272826450e+02  -1.8403908218170005e+02  -1.8357626835518229e+02  -1.8311302201906440e+02  -1.8264934394460016e+02  -1.8218523490394375e+02  -1.8172069567014836e+02  -1.8125572701716547e+02  -1.8079032971984535e+02  -1.8032450455393590e+02  -1.7985825229608162e+02  -1.7939157372382360e+02  -1.7892446961559824e+02  -1.7845694075073749e+02  -1.7798898790946799e+02  -1.7752061187290994e+02  -1.7705181342307731e+02  -1.7658259334287652e+02  -1.7611295241610620e+02  -1.7564289142745619e+02  -1.7517241116250713e+02  -1.7470151240773004e+02  -1.7423019595048547e+02  -1.7375846257902350e+02  -1.7328631308248222e+02  -1.7281374825088750e+02  -1.7234076887515300e+02  -1.7186737574707797e+02  -1.7139356965934832e+02  -1.7091935140553494e+02  -1.7044472178009377e+02  -1.6996968157836440e+02  -1.6949423159656968e+02  -1.6901837263181616e+02  -1.6854210548209227e+02  -1.6806543094626798e+02  -1.6758834982409346e+02  -1.6711086291619995e+02  -1.6663297102409811e+02  -1.6615467495017808e+02  -1.6567597549770764e+02  -1.6519687347083288e+02  -1.6471736967457713e+02  -1.6423746491483979e+02  -1.6375715999839642e+02  -1.6327645573289794e+02  -1.6279535292686981e+02  -1.6231385238971120e+02  -1.6183195493169498e+02  -1.6134966136396636e+02  -1.6086697249854282e+02  -1.6038388914831313e+02  -1.5990041212703699e+02  -1.5941654224934402e+02  -1.5893228033073339e+02  -1.5844762718757306e+02  -1.5796258363709879e+02  -1.5747715049741416e+02  -1.5699132858748936e+02  -1.5650511872716132e+02  -1.5601852173713240e+02  -1.5553153843896982e+02  -1.5504416965510487e+02  -1.545564162088