<?xml version="1.0"?>
<VTKFile type="UnstructuredGrid"  version="0.1"  >
<UnstructuredGrid>
<Piece  NumberOfPoints="10001" NumberOfCells="10000">
<Points>
<DataArray  type="Float64"  NumberOfComponents="3"  format="ascii">0 0 0  0.0001 0 0  0.0002 0 0  0.0003 0 0  0.0004 0 0  0.0005 0 0  0.0005999999999999999 0 0  0.0007 0 0  0.0008 0 0  0.0009 0 0  0.001 0 0  0.0011 0 0  0.0012 0 0  0.0013 0 0  0.0014 0 0  0.0015 0 0  0.0016 0 0  0.0017 0 0  0.0018 0 0  0.0019 0 0  0.002 0 0  0.0021 0 0  0.0022 0 0  0.0023 0 0  0.0024 0 0  0.0025 0 0  0.0026 0 0  0.0027 0 0  0.0028 0 0  0.0029 0 0  0.003 0 0  0.0031 0 0  0.0032 0 0  0.0033 0 0  0.0034 0 0  0.0035 0 0  0.0036 0 0  0.0037 0 0  0.0038 0 0  0.0039 0 0  0.004 0 0  0.0041 0 0  0.0042 0 0  0.0043 0 0  0.0044 0 0  0.0045 0 0  0.0046 0 0  0.0047 0 0  0.0048 0 0  0.0049 0 0  0.005 0 0  0.0051 0 0  0.0052 0 0  0.0053 0 0  0.0054 0 0  0.0055 0 0  0.0056 0 0  0.0057 0 0  0.0058 0 0  0.0059 0 0  0.006 0 0  0.0061 0 0  0.0062 0 0  0.0063 0 0  0.0064 0 0  0.0065 0 0  0.0066 0 0  0.0067 0 0  0.0068 0 0  0.0069 0 0  0.007 0 0  0.0071 0 0  0.0072 0 0  0.0073 0 0  0.0074 0 0  0.0075 0 0  0.0076 0 0  0.0077 0 0  0.0078 0 0  0.007900000000000001 0 0  0.008 0 0  0.0081 0 0  0.008200000000000001 0 0  0.0083 0 0  0.008399999999999999 0 0  0.008500000000000001 0 0  0.0086 0 0  0.008699999999999999 0 0  0.008800000000000001 0 0  0.0089 0 0  0.008999999999999999 0 0  0.0091 0 0  0.0092 0 0  0.009299999999999999 0 0  0.0094 0 0  0.0095 0 0  0.009599999999999999 0 0  0.0097 0 0  0.0098 0 0  0.009900000000000001 0 0  0.01 0 0  0.0101 0 0  0.0102 0 0  0.0103 0 0  0.0104 0 0  0.0105 0 0  0.0106 0 0  0.0107 0 0  0.0108 0 0  0.0109 0 0  0.011 0 0  0.0111 0 0  0.0112 0 0  0.0113 0 0  0.0114 0 0  0.0115 0 0  0.0116 0 0  0.0117 0 0  0.0118 0 0  0.0119 0 0  0.012 0 0  0.0121 0 0  0.0122 0 0  0.0123 0 0  0.0124 0 0  0.0125 0 0  0.0126 0 0  0.0127 0 0  0.0128 0 0  0.0129 0 0  0.013 0 0  0.0131 0 0  0.0132 0 0  0.0133 0 0  0.0134 0 0  0.0135 0 0  0.0136 0 0  0.0137 0 0  0.0138 0 0  0.0139 0 0  0.014 0 0  0.0141 0 0  0.0142 0 0  0.0143 0 0  0.0144 0 0  0.0145 0 0  0.0146 0 0  0.0147 0 0  0.0148 0 0  0.0149 0 0  0.015 0 0  0.0151 0 0  0.0152 0 0  0.0153 0 0  0.0154 0 0  0.0155 0 0  0.0156 0 0  0.0157 0 0  0.0158 0 0  0.0159 0 0  0.016 0 0  0.0161 0 0  0.0162 0 0  0.0163 0 0  0.0164 0 0  0.0165 0 0  0.0166 0 0  0.0167 0 0  0.0168 0 0  0.0169 0 0  0.017 0 0  0.0171 0 0  0.0172 0 0  0.0173 0 0  0.0174 0 0  0.0175 0 0  0.0176 0 0  0.0177 0 0  0.0178 0 0  0.0179 0 0  0.018 0 0  0.0181 0 0  0.0182 0 0  0.0183 0 0  0.0184 0 0  0.0185 0 0  0.0186 0 0  0.0187 0 0  0.0188 0 0  0.0189 0 0  0.019 0 0  0.0191 0 0  0.0192 0 0  0.0193 0 0  0.0194 0 0  0.0195 0 0  0.0196 0 0  0.0197 0 0  0.0198 0 0  0.0199 0 0  0.02 0 0  0.0201 0 0  0.0202 0 0  0.0203 0 0  0.0204 0 0  0.0205 0 0  0.0206 0 0  0.0207 0 0  0.0208 0 0  0.0209 0 0  0.021 0 0  0.0211 0 0  0.0212 0 0  0.0213 0 0  0.0214 0 0  0.0215 0 0  0.0216 0 0  0.0217 0 0  0.0218 0 0  0.0219 0 0  0.022 0 0  0.0221 0 0  0.0222 0 0  0.0223 0 0  0.0224 0 0  0.0225 0 0  0.0226 0 0  0.0227 0 0  0.0228 0 0  0.0229 0 0  0.023 0 0  0.0231 0 0  0.0232 0 0  0.0233 0 0  0.0234 0 0  0.0235 0 0  0.0236 0 0  0.0237 0 0  0.0238 0 0  0.0239 0 0  0.024 0 0  0.0241 0 0  0.0242 0 0  0.0243 0 0  0.0244 0 0  0.0245 0 0  0.0246 0 0  0.0247 0 0  0.0248 0 0  0.0249 0 0  0.025 0 0  0.0251 0 0  0.0252 0 0  0.0253 0 0  0.0254 0 0  0.0255 0 0  0.0256 0 0  0.0257 0 0  0.0258 0 0  0.0259 0 0  0.026 0 0  0.0261 0 0  0.0262 0 0  0.0263 0 0  0.0264 0 0  0.0265 0 0  0.0266 0 0  0.0267 0 0  0.0268 0 0  0.0269 0 0  0.027 0 0  0.0271 0 0  0.0272 0 0  0.0273 0 0  0.0274 0 0  0.0275 0 0  0.0276 0 0  0.0277 0 0  0.0278 0 0  0.0279 0 0  0.028 0 0  0.0281 0 0  0.0282 0 0  0.0283 0 0  0.0284 0 0  0.0285 0 0  0.0286 0 0  0.0287 0 0  0.0288 0 0  0.0289 0 0  0.029 0 0  0.0291 0 0  0.0292 0 0  0.0293 0 0  0.0294 0 0  0.0295 0 0  0.0296 0 0  0.0297 0 0  0.0298 0 0  0.0299 0 0  0.03 0 0  0.0301 0 0  0.0302 0 0  0.0303 0 0  0.0304 0 0  0.0305 0 0  0.0306 0 0  0.0307 0 0  0.0308 0 0  0.0309 0 0  0.031 0 0  0.0311 0 0  0.0312 0 0  0.0313 0 0  0.0314 0 0  0.0315 0 0  0.0316 0 0  0.0317 0 0  0.0318 0 0  0.0319 0 0  0.032 0 0  0.0321 0 0  0.0322 0 0  0.0323 0 0  0.0324 0 0  0.0325 0 0  0.0326 0 0  0.0327 0 0  0.0328 0 0  0.0329 0 0  0.033 0 0  0.0331 0 0  0.0332 0 0  0.0333 0 0  0.0334 0 0  0.0335 0 0  0.0336 0 0  0.0337 0 0  0.0338 0 0  0.0339 0 0  0.034 0 0  0.0341 0 0  0.0342 0 0  0.0343 0 0  0.0344 0 0  0.0345 0 0  0.0346 0 0  0.0347 0 0  0.0348 0 0  0.0349 0 0  0.035 0 0  0.0351 0 0  0.0352 0 0  0.0353 0 0  0.0354 0 0  0.0355 0 0  0.0356 0 0  0.0357 0 0  0.0358 0 0  0.0359 0 0  0.036 0 0  0.0361 0 0  0.0362 0 0  0.0363 0 0  0.0364 0 0  0.0365 0 0  0.0366 0 0  0.0367 0 0  0.0368 0 0  0.0369 0 0  0.037 0 0  0.0371 0 0  0.0372 0 0  0.0373 0 0  0.0374 0 0  0.0375 0 0  0.0376 0 0  0.0377 0 0  0.0378 0 0  0.0379 0 0  0.038 0 0  0.0381 0 0  0.0382 0 0  0.0383 0 0  0.0384 0 0  0.0385 0 0  0.0386 0 0  0.0387 0 0  0.0388 0 0  0.0389 0 0  0.039 0 0  0.0391 0 0  0.0392 0 0  0.0393 0 0  0.0394 0 0  0.0395 0 0  0.0396 0 0  0.0397 0 0  0.0398 0 0  0.0399 0 0  0.04 0 0  0.0401 0 0  0.0402 0 0  0.0403 0 0  0.0404 0 0  0.0405 0 0  0.0406 0 0  0.0407 0 0  0.0408 0 0  0.0409 0 0  0.041 0 0  0.0411 0 0  0.0412 0 0  0.0413 0 0  0.0414 0 0  0.0415 0 0  0.0416 0 0  0.0417 0 0  0.0418 0 0  0.0419 0 0  0.042 0 0  0.0421 0 0  0.0422 0 0  0.0423 0 0  0.0424 0 0  0.0425 0 0  0.0426 0 0  0.0427 0 0  0.0428 0 0  0.0429 0 0  0.043 0 0  0.0431 0 0  0.0432 0 0  0.0433 0 0  0.0434 0 0  0.0435 0 0  0.0436 0 0  0.0437 0 0  0.0438 0 0  0.0439 0 0  0.044 0 0  0.0441 0 0  0.0442 0 0  0.0443 0 0  0.0444 0 0  0.0445 0 0  0.0446 0 0  0.0447 0 0  0.0448 0 0  0.0449 0 0  0.045 0 0  0.0451 0 0  0.0452 0 0  0.0453 0 0  0.0454 0 0  0.0455 0 0  0.0456 0 0  0.0457 0 0  0.0458 0 0  0.0459 0 0  0.046 0 0  0.0461 0 0  0.0462 0 0  0.0463 0 0  0.0464 0 0  0.0465 0 0  0.0466 0 0  0.0467 0 0  0.0468 0 0  0.0469 0 0  0.047 0 0  0.0471 0 0  0.0472 0 0  0.0473 0 0  0.0474 0 0  0.0475 0 0  0.0476 0 0  0.0477 0 0  0.0478 0 0  0.0479 0 0  0.048 0 0  0.0481 0 0  0.0482 0 0  0.0483 0 0  0.0484 0 0  0.0485 0 0  0.0486 0 0  0.0487 0 0  0.0488 0 0  0.0489 0 0  0.049 0 0  0.0491 0 0  0.0492 0 0  0.0493 0 0  0.0494 0 0  0.0495 0 0  0.0496 0 0  0.0497 0 0  0.0498 0 0  0.0499 0 0  0.05 0 0  0.0501 0 0  0.0502 0 0  0.0503 0 0  0.0504 0 0  0.0505 0 0  0.0506 0 0  0.0507 0 0  0.0508 0 0  0.0509 0 0  0.051 0 0  0.0511 0 0  0.0512 0 0  0.0513 0 0  0.0514 0 0  0.0515 0 0  0.0516 0 0  0.0517 0 0  0.0518 0 0  0.0519 0 0  0.052 0 0  0.0521 0 0  0.0522 0 0  0.0523 0 0  0.0524 0 0  0.0525 0 0  0.0526 0 0  0.0527 0 0  0.0528 0 0  0.0529 0 0  0.053 0 0  0.0531 0 0  0.0532 0 0  0.0533 0 0  0.0534 0 0  0.0535 0 0  0.0536 0 0  0.0537 0 0  0.0538 0 0  0.0539 0 0  0.054 0 0  0.0541 0 0  0.0542 0 0  0.0543 0 0  0.0544 0 0  0.0545 0 0  0.0546 0 0  0.0547 0 0  0.0548 0 0  0.0549 0 0  0.055 0 0  0.0551 0 0  0.0552 0 0  0.0553 0 0  0.0554 0 0  0.0555 0 0  0.0556 0 0  0.0557 0 0  0.0558 0 0  0.0559 0 0  0.056 0 0  0.0561 0 0  0.0562 0 0  0.0563 0 0  0.0564 0 0  0.0565 0 0  0.0566 0 0  0.0567 0 0  0.0568 0 0  0.0569 0 0  0.057 0 0  0.0571 0 0  0.0572 0 0  0.0573 0 0  0.0574 0 0  0.0575 0 0  0.0576 0 0  0.0577 0 0  0.0578 0 0  0.0579 0 0  0.058 0 0  0.0581 0 0  0.0582 0 0  0.0583 0 0  0.0584 0 0  0.0585 0 0  0.0586 0 0  0.0587 0 0  0.0588 0 0  0.0589 0 0  0.059 0 0  0.0591 0 0  0.0592 0 0  0.0593 0 0  0.0594 0 0  0.0595 0 0  0.0596 0 0  0.0597 0 0  0.0598 0 0  0.0599 0 0  0.06 0 0  0.0601 0 0  0.0602 0 0  0.0603 0 0  0.0604 0 0  0.0605 0 0  0.0606 0 0  0.0607 0 0  0.0608 0 0  0.0609 0 0  0.061 0 0  0.0611 0 0  0.0612 0 0  0.0613 0 0  0.0614 0 0  0.0615 0 0  0.0616 0 0  0.0617 0 0  0.0618 0 0  0.0619 0 0  0.062 0 0  0.0621 0 0  0.0622 0 0  0.0623 0 0  0.0624 0 0  0.0625 0 0  0.0626 0 0  0.06270000000000001 0 0  0.06279999999999999 0 0  0.0629 0 0  0.063 0 0  0.0631 0 0  0.06320000000000001 0 0  0.0633 0 0  0.0634 0 0  0.0635 0 0  0.0636 0 0  0.06370000000000001 0 0  0.0638 0 0  0.0639 0 0  0.064 0 0  0.0641 0 0  0.06419999999999999 0 0  0.0643 0 0  0.0644 0 0  0.0645 0 0  0.0646 0 0  0.06469999999999999 0 0  0.0648 0 0  0.0649 0 0  0.065 0 0  0.06510000000000001 0 0  0.06519999999999999 0 0  0.0653 0 0  0.0654 0 0  0.0655 0 0  0.06560000000000001 0 0  0.06569999999999999 0 0  0.0658 0 0  0.0659 0 0  0.066 0 0  0.06610000000000001 0 0  0.06619999999999999 0 0  0.0663 0 0  0.0664 0 0  0.0665 0 0  0.06660000000000001 0 0  0.0667 0 0  0.0668 0 0  0.0669 0 0  0.067 0 0  0.06710000000000001 0 0  0.0672 0 0  0.0673 0 0  0.0674 0 0  0.0675 0 0  0.06759999999999999 0 0  0.0677 0 0  0.0678 0 0  0.0679 0 0  0.068 0 0  0.06809999999999999 0 0  0.0682 0 0  0.0683 0 0  0.0684 0 0  0.06850000000000001 0 0  0.06859999999999999 0 0  0.0687 0 0  0.0688 0 0  0.0689 0 0  0.06900000000000001 0 0  0.06909999999999999 0 0  0.0692 0 0  0.0693 0 0  0.0694 0 0  0.06950000000000001 0 0  0.0696 0 0  0.0697 0 0  0.0698 0 0  0.0699 0 0  0.07000000000000001 0 0  0.0701 0 0  0.0702 0 0  0.0703 0 0  0.0704 0 0  0.07049999999999999 0 0  0.0706 0 0  0.0707 0 0  0.0708 0 0  0.0709 0 0  0.07099999999999999 0 0  0.0711 0 0  0.0712 0 0  0.0713 0 0  0.07140000000000001 0 0  0.07149999999999999 0 0  0.0716 0 0  0.0717 0 0  0.0718 0 0  0.07190000000000001 0 0  0.07199999999999999 0 0  0.0721 0 0  0.0722 0 0  0.0723 0 0  0.07240000000000001 0 0  0.0725 0 0  0.0726 0 0  0.0727 0 0  0.0728 0 0  0.07290000000000001 0 0  0.073 0 0  0.0731 0 0  0.0732 0 0  0.0733 0 0  0.07340000000000001 0 0  0.0735 0 0  0.0736 0 0  0.0737 0 0  0.0738 0 0  0.07389999999999999 0 0  0.074 0 0  0.0741 0 0  0.0742 0 0  0.0743 0 0  0.07439999999999999 0 0  0.0745 0 0  0.0746 0 0  0.0747 0 0  0.07480000000000001 0 0  0.07489999999999999 0 0  0.075 0 0  0.0751 0 0  0.0752 0 0  0.07530000000000001 0 0  0.07539999999999999 0 0  0.0755 0 0  0.0756 0 0  0.0757 0 0  0.07580000000000001 0 0  0.0759 0 0  0.076 0 0  0.0761 0 0  0.0762 0 0  0.07630000000000001 0 0  0.0764 0 0  0.0765 0 0  0.0766
[...]
<PointData  Scalars="f_18"> 
<DataArray  type="Float64"  Name="f_18"  format="ascii">0.0000000000000000e+00  6.1399296352245485e-07  1.2279858664487461e-06  1.8419786481827164e-06  2.4559712481282206e-06  3.0699636056891306e-06  3.6839556602693432e-06  4.2979473512727864e-06  4.9119386181034190e-06  5.5259294001652483e-06  6.1399196368623261e-06  6.7539092675987571e-06  7.3678982317787039e-06  7.9818864688064010e-06  8.5958739180861515e-06  9.2098605190223339e-06  9.8238462110194156e-06  1.0437830933481944e-05  1.1051814625814572e-05  1.1665797227422052e-05  1.2279778677709249e-05  1.2893758916081129e-05  1.3507737881942789e-05  1.4121715514699443e-05  1.4735691753756446e-05  1.5349666538519282e-05  1.5963639808393575e-05  1.6577611502785112e-05  1.7191581561099823e-05  1.7805549922743813e-05  1.8419516527123341e-05  1.9033481313644840e-05  1.9647444221714934e-05  2.0261405190740418e-05  2.0875364160128287e-05  2.1489321069285738e-05  2.2103275857620155e-05  2.2717228464539150e-05  2.3331178829450536e-05  2.3945126891762352e-05  2.4559072590882866e-05  2.5173015866220570e-05  2.5786956657184209e-05  2.6400894903182772e-05  2.7014830543625491e-05  2.7628763517921851e-05  2.8242693765481615e-05  2.8856621225714800e-05  2.9470545838031699e-05  3.0084467541842913e-05  3.0698386276559292e-05  3.1312301981592003e-05  3.1926214596352501e-05  3.2540124060252546e-05  3.3154030312704225e-05  3.3767933293119921e-05  3.4381832940912357e-05  3.4995729195494568e-05  3.5609621996279932e-05  3.6223511282682176e-05  3.6837396994115350e-05  3.7451279069993877e-05  3.8065157449732528e-05  3.8679032072746450e-05  3.9292902878451164e-05  3.9906769806262538e-05  4.0520632795596879e-05  4.1134491785870798e-05  4.1748346716501390e-05  4.2362197526906092e-05  4.2976044156502764e-05  4.3589886544709679e-05  4.4203724630945536e-05  4.4817558354629454e-05  4.5431387655180972e-05  4.6045212472020064e-05  4.6659032744567184e-05  4.7272848412243194e-05  4.7886659414469414e-05  4.8500465690667641e-05  4.9114267180260125e-05  4.9728063822669591e-05  5.0341855557319263e-05  5.0955642323632789e-05  5.1569424061034376e-05  5.2183200708948713e-05  5.2796972206800946e-05  5.3410738494016778e-05  5.4024499510022419e-05  5.4638255194244569e-05  5.5252005486110486e-05  5.5865750325047958e-05  5.6479489650485271e-05  5.7093223401851302e-05  5.7706951518575472e-05  5.8320673940087734e-05  5.8934390605818613e-05  5.9548101455199222e-05  6.0161806427661216e-05  6.0775505462636861e-05  6.1389198499558971e-05  6.2002885477860991e-05  6.2616566336976960e-05  6.3230241016341463e-05  6.3843909455389759e-05  6.4457571593557719e-05  6.5071227370281796e-05  6.5684876724999094e-05  6.6298519597147353e-05  6.6912155926164937e-05  6.7525785651490901e-05  6.8139408712564897e-05  6.8753025048827267e-05  6.9366634599718978e-05  6.9980237304681728e-05  7.0593833103157824e-05  7.1207421934590305e-05  7.1821003738422904e-05  7.2434578454099946e-05  7.3048146021066599e-05  7.3661706378768627e-05  7.4275259466652566e-05  7.4888805224165657e-05  7.5502343590755832e-05  7.6115874505871823e-05  7.6729397908963025e-05  7.7342913739479580e-05  7.7956421936872442e-05  7.8569922440593229e-05  7.9183415190094386e-05  7.9796900124829104e-05  8.0410377184251359e-05  8.1023846307815846e-05  8.1637307434978115e-05  8.2250760505194471e-05  8.2864205457921995e-05  8.3477642232618609e-05  8.4091070768743003e-05  8.4704491005754712e-05  8.5317902883114081e-05  8.5931306340282298e-05  8.6544701316721334e-05  8.7158087751894016e-05  8.7771465585264024e-05  8.8384834756295865e-05  8.8998195204454940e-05  8.9611546869207491e-05  9.0224889690020599e-05  9.0838223606362267e-05  9.1451548557701368e-05  9.2064864483507638e-05  9.2678171323251710e-05  9.3291469016405098e-05  9.3904757502440237e-05  9.4518036720830470e-05  9.5131306611050020e-05  9.5744567112574115e-05  9.6357818164878850e-05  9.6971059707441265e-05  9.7584291679739314e-05  9.8197514021251895e-05  9.8810726671458884e-05  9.9423929569841118e-05  1.0003712265588037e-04  1.0065030586905940e-04  1.0126347914886193e-04  1.0187664243477264e-04  1.0248979566627726e-04  1.0310293878286246e-04  1.0371607172401588e-04  1.0432919442922630e-04  1.0494230683798332e-04  1.0555540888977770e-04  1.0616850052410116e-04  1.0678158168044648e-04  1.0739465229830749e-04  1.0800771231717894e-04  1.0862076167655677e-04  1.0923380031593789e-04  1.0984682817482029e-04  1.1045984519270301e-04  1.1107285130908622e-04  1.1168584646347106e-04  1.1229883059535987e-04  1.1291180364425594e-04  1.1352476554966375e-04  1.1413771625108887e-04  1.1475065568803800e-04  1.1536358380001887e-04  1.1597650052654038e-04  1.1658940580711255e-04  1.1720229958124655e-04  1.1781518178845463e-04  1.1842805236825026e-04  1.1904091126014799e-04  1.1965375840366353e-04  1.2026659373831378e-04  1.2087941720361678e-04  1.2149222873909178e-04  1.2210502828425911e-04  1.2271781577864038e-04  1.2333059116175835e-04  1.2394335437313704e-04  1.2455610535230154e-04  1.2516884403877826e-04  1.2578157037209476e-04  1.2639428429177984e-04  1.2700698573736354e-04  1.2761967464837711e-04  1.2823235096435303e-04  1.2884501462482508e-04  1.2945766556932825e-04  1.3007030373739871e-04  1.3068292906857399e-04  1.3129554150239292e-04  1.3190814097839546e-04  1.3252072743612296e-04  1.3313330081511803e-04  1.3374586105492452e-04  1.3435840809508762e-04  1.3497094187515384e-04  1.3558346233467106e-04  1.3619596941318829e-04  1.3680846305025600e-04  1.3742094318542589e-04  1.3803340975825109e-04  1.3864586270828606e-04  1.3925830197508661e-04  1.3987072749820979e-04  1.4048313921721409e-04  1.4109553707165941e-04  1.4170792100110682e-04  1.4232029094511902e-04  1.4293264684325994e-04  1.4354498863509491e-04  1.4415731626019071e-04  1.4476962965811544e-04  1.4538192876843863e-04  1.4599421353073130e-04  1.4660648388456574e-04  1.4721873976951576e-04  1.4783098112515659e-04  1.4844320789106482e-04  1.4905542000681859e-04  1.4966761741199748e-04  1.5027980004618240e-04  1.5089196784895582e-04  1.5150412075990168e-04  1.5211625871860534e-04  1.5272838166465364e-04  1.5334048953763489e-04  1.5395258227713895e-04  1.5456465982275703e-04  1.5517672211408205e-04  1.5578876909070829e-04  1.5640080069223160e-04  1.5701281685824930e-04  1.5762481752836023e-04  1.5823680264216480e-04  1.5884877213926494e-04  1.5946072595926416e-04  1.6007266404176744e-04  1.6068458632638140e-04  1.6129649275271418e-04  1.6190838326037539e-04  1.6252025778897629e-04  1.6313211627812978e-04  1.6374395866745030e-04  1.6435578489655377e-04  1.6496759490505788e-04  1.6557938863258180e-04  1.6619116601874635e-04  1.6680292700317392e-04  1.6741467152548862e-04  1.6802639952531609e-04  1.6863811094228361e-04  1.6924980571602014e-04  1.6986148378615620e-04  1.7047314509232398e-04  1.7108478957415752e-04  1.7169641717129218e-04  1.7230802782336525e-04  1.7291962147001559e-04  1.7353119805088373e-04  1.7414275750561199e-04  1.7475429977384420e-04  1.7536582479522607e-04  1.7597733250940484e-04  1.7658882285602958e-04  1.7720029577475104e-04  1.7781175120522172e-04  1.7842318908709574e-04  1.7903460936002908e-04  1.7964601196367934e-04  1.8025739683770589e-04  1.8086876392176991e-04  1.8148011315553432e-04  1.8209144447866381e-04  1.8270275783082476e-04  1.8331405315168538e-04  1.8392533038091564e-04  1.8453658945818735e-04  1.8514783032317408e-04  1.8575905291555111e-04  1.8637025717499570e-04  1.8698144304118674e-04  1.8759261045380503e-04  1.8820375935253326e-04  1.8881488967705578e-04  1.8942600136705884e-04  1.9003709436223062e-04  1.9064816860226100e-04  1.9125922402684180e-04  1.9187026057566672e-04  1.9248127818843116e-04  1.9309227680483260e-04  1.9370325636457026e-04  1.9431421680734523e-04  1.9492515807286066e-04  1.9553608010082135e-04  1.9614698283093425e-04  1.9675786620290797e-04  1.9736873015645321e-04  1.9797957463128256e-04  1.9859039956711031e-04  1.9920120490365294e-04  1.9981199058062877e-04  2.0042275653775810e-04  2.0103350271476319e-04  2.0164422905136802e-04  2.0225493548729886e-04  2.0286562196228372e-04  2.0347628841605269e-04  2.0408693478833785e-04  2.0469756101887306e-04  2.0530816704739447e-04  2.0591875281363996e-04  2.0652931825734962e-04  2.0713986331826536e-04  2.0775038793613122e-04  2.0836089205069326e-04  2.0897137560169942e-04  2.0958183852889988e-04  2.1019228077204661e-04  2.1080270227089387e-04  2.1141310296519789e-04  2.1202348279471684e-04  2.1263384169921108e-04  2.1324417961844286e-04  2.1385449649217680e-04  2.1446479226017935e-04  2.1507506686221903e-04  2.1568532023806663e-04  2.1629555232749480e-04  2.1690576307027855e-04  2.1751595240619478e-04  2.1812612027502268e-04  2.1873626661654349e-04  2.1934639137054045e-04  2.1995649447679913e-04  2.2056657587510704e-04  2.2117663550525398e-04  2.2178667330703187e-04  2.2239668922023468e-04  2.2300668318465871e-04  2.2361665514010224e-04  2.2422660502636593e-04  2.2483653278325245e-04  2.2544643835056672e-04  2.2605632166811584e-04  2.2666618267570905e-04  2.2727602131315791e-04  2.2788583752027602e-04  2.2849563123687944e-04  2.2910540240278629e-04  2.2971515095781680e-04  2.3032487684179366e-04  2.3093457999454162e-04  2.3154426035588781e-04  2.3215391786566154e-04  2.3276355246369435e-04  2.3337316408982014e-04  2.3398275268387495e-04  2.3459231818569716e-04  2.3520186053512738e-04  2.3581137967200856e-04  2.3642087553618605e-04  2.3703034806750719e-04  2.3763979720582191e-04  2.3824922289098226e-04  2.3885862506284271e-04  2.3946800366126010e-04  2.4007735862609339e-04  2.4068668989720416e-04  2.4129599741445603e-04  2.4190528111771515e-04  2.4251454094684999e-04  2.4312377684173131e-04  2.4373298874223230e-04  2.4434217658822840e-04  2.4495134031959768e-04  2.4556047987622028e-04  2.4616959519797892e-04  2.4677868622475878e-04  2.4738775289644713e-04  2.4799679515293395e-04  2.4860581293411146e-04  2.4921480617987447e-04  2.4982377483011997e-04  2.5043271882474748e-04  2.5104163810365902e-04  2.5165053260675895e-04  2.5225940227395423e-04  2.5286824704515414e-04  2.5347706686027036e-04  2.5408586165921715e-04  2.5469463138191124e-04  2.5530337596827167e-04  2.5591209535822014e-04  2.5652078949168073e-04  2.5712945830858020e-04  2.5773810174884744e-04  2.5834671975241431e-04  2.5895531225921475e-04  2.5956387920918553e-04  2.6017242054226575e-04  2.6078093619839713e-04  2.6138942611752397e-04  2.6199789023959285e-04  2.6260632850455323e-04  2.6321474085235684e-04  2.6382312722295819e-04  2.6443148755631436e-04  2.6503982179238469e-04  2.6564812987113148e-04  2.6625641173251937e-04  2.6686466731651564e-04  2.6747289656309020e-04  2.6808109941221548e-04  2.6868927580386658e-04  2.6929742567802109e-04  2.6990554897465959e-04  2.7051364563376488e-04  2.7112171559532245e-04  2.7172975879932059e-04  2.7233777518575005e-04  2.7294576469460443e-04  2.7355372726587963e-04  2.7416166283957477e-04  2.7476957135569112e-04  2.7537745275423286e-04  2.7598530697520672e-04  2.7659313395862224e-04  2.7720093364449170e-04  2.7780870597282989e-04  2.7841645088365422e-04  2.7902416831698514e-04  2.7963185821284554e-04  2.8023952051126110e-04  2.8084715515226032e-04  2.8145476207587429e-04  2.8206234122213705e-04  2.8266989253108500e-04  2.8327741594275758e-04  2.8388491139719690e-04  2.8449237883444787e-04  2.8509981819455820e-04  2.8570722941757820e-04  2.8631461244356106e-04  2.8692196721256279e-04  2.8752929366464226e-04  2.8813659173986103e-04  2.8874386137828326e-04  2.8935110251997615e-04  2.8995831510500962e-04  2.9056549907345667e-04  2.9117265436539273e-04  2.9177978092089619e-04  2.9238687868004859e-04  2.9299394758293374e-04  2.9360098756963879e-04  2.9420799858025348e-04  2.9481498055487049e-04  2.9542193343358550e-04  2.9602885715649671e-04  2.9663575166370557e-04  2.9724261689531610e-04  2.9784945279143546e-04  2.9845625929217367e-04  2.9906303633764331e-04  2.9966978386796047e-04  3.0027650182324359e-04  3.0088319014361434e-04  3.0148984876919718e-04  3.0209647764011964e-04  3.0270307669651202e-04  3.0330964587850772e-04  3.0391618512624300e-04  3.0452269437985699e-04  3.0512917357949188e-04  3.0573562266529293e-04  3.0634204157740810e-04  3.0694843025598864e-04  3.0755478864118852e-04  3.0816111667316477e-04  3.0876741429207758e-04  3.0937368143808981e-04  3.0997991805136778e-04  3.1058612407208042e-04  3.1119229944039990e-04  3.1179844409650123e-04  3.1240455798056265e-04  3.1301064103276529e-04  3.1361669319329342e-04  3.1422271440233423e-04  3.1482870460007811e-04  3.1543466372671840e-04  3.1604059172245176e-04  3.1664648852747744e-04  3.1725235408199822e-04  3.1785818832621965e-04  3.1846399120035070e-04  3.1906976264460307e-04  3.1967550259919171e-04  3.2028121100433483e-04  3.2088688780025355e-04  3.2149253292717211e-04  3.2209814632531806e-04  3.2270372793492190e-04  3.2330927769621745e-04  3.2391479554944134e-04  3.2452028143483379e-04  3.2512573529263771e-04  3.2573115706309956e-04  3.2633654668646887e-04  3.2694190410299806e-04  3.2754722925294321e-04  3.2815252207656315e-04  3.2875778251412007e-04  3.2936301050587942e-04  3.2996820599210969e-04  3.3057336891308283e-04  3.3117849920907372e-04  3.3178359682036065e-04  3.3238866168722512e-04  3.3299369374995176e-04  3.3359869294882858e-04  3.3420365922414650e-04  3.3480859251620008e-04  3.3541349276528697e-04  3.3601835991170807e-04  3.3662319389576764e-04  3.3722799465777298e-04  3.3783276213803507e-04  3.3843749627686761e-04  3.3904219701458819e-04  3.3964686429151735e-04  3.4025149804797907e-04  3.4085609822430055e-04  3.4146066476081218e-04  3.4206519759784793e-04  3.4266969667574485e-04  3.4327416193484354e-04  3.4387859331548788e-04  3.4448299075802495e-04  3.4508735420280538e-04  3.4569168359018291e-04  3.4629597886051488e-04  3.4690023995416198e-04  3.4750446681148801e-04  3.4810865937286037e-04  3.4871281757864990e-04  3.4931694136923074e-04  3.4992103068498016e-04  3.5052508546627942e-04  3.5112910565351273e-04  3.5173309118706779e-04  3.5233704200733585e-04  3.5294095805471146e-04  3.5354483926959275e-04  3.5414868559238119e-04  3.5475249696348150e-04  3.5535627332330217e-04  3.5596001461225498e-04  3.5656372077075526e-04  3.5716739173922166e-04  3.5777102745807639e-04  3.5837462786774516e-04  3.5897819290865707e-04  3.5958172252124480e-04  3.6018521664594441e-04  3.6078867522319579e-04  3.6139209819344208e-04  3.6199548549712974e-04  3.6259883707470908e-04  3.6320215286663376e-04  3.6380543281336114e-04  3.6440867685535192e-04  3.6501188493307050e-04  3.6561505698698475e-04  3.6621819295756602e-04  3.6682129278528926e-04  3.6742435641063320e-04  3.6802738377407978e-04  3.6863037481611489e-04  3.6923332947722773e-04  3.6983624769791113e-04  3.7043912941866163e-04  3.7104197457997929e-04  3.7164478312236781e-04  3.7224755498633442e-04  3.7285029011239009e-04  3.7345298844104931e-04  3.7405564991283029e-04  3.7465827446825486e-04  3.7526086204784840e-04  3.7586341259213991e-04  3.7646592604166222e-04  3.7706840233695188e-04  3.7767084141854880e-04  3.7827324322699675e-04  3.7887560770284321e-04  3.7947793478663923e-04  3.8008022441893963e-04  3.8068247654030296e-04  3.8128469109129136e-04  3.8188686801247077e-04  3.8248900724441082e-04  3.8309110872768474e-04  3.8369317240286976e-04  3.8429519821054649e-04  3.8489718609129958e-04  3.8549913598571713e-04  3.8610104783439120e-04  3.8670292157791766e-04  3.8730475715689604e-04  3.8790655451192947e-04  3.8850831358362513e-04  3.8911003431259386e-04  3.8971171663945020e-04  3.9031336050481268e-04  3.9091496584930339e-04  3.9151653261354827e-04  3.9211806073817740e-04  3.9271955016382409e-04  3.9332100083112599e-04  3.9392241268072407e-04  3.9452378565326351e-04  3.9512511968939340e-04  3.9572641472976653e-04  3.9632767071503942e-04  3.9692888758587248e-04  3.9753006528293010e-04  3.9813120374688051e-04  3.9873230291839577e-04  3.9933336273815178e-04  3.9993438314682846e-04  4.0053536408510932e-04  4.0113630549368229e-04  4.0173720731323873e-04  4.0233806948447402e-04  4.0293889194808748e-04  4.0353967464478227e-04  4.0414041751526573e-04  4.0474112050024896e-04  4.0534178354044681e-04  4.0594240657657835e-04  4.0654298954936636e-04  4.0714353239953792e-04  4.0774403506782373e-04  4.0834449749495858e-04  4.0894491962168128e-04  4.0954530138873448e-04  4.1014564273686508e-04  4.1074594360682377e-04  4.1134620393936522e-04  4.1194642367524799e-04  4.1254660275523496e-04  4.1314674112009268e-04  4.1374683871059202e-04  4.1434689546750777e-04  4.1494691133161859e-04  4.1554688624370736e-04  4.1614682014456098e-04  4.1674671297497047e-04  4.1734656467573068e-04  4.1794637518764054e-04  4.1854614445150333e-04  4.1914587240812599e-04  4.1974555899831987e-04  4.2034520416290026e-04  4.2094480784268649e-04  4.2154436997850225e-04  4.2214389051117493e-04  4.2274336938153632e-04  4.2334280653042215e-04  4.2394220189867222e-04  4.2454155542713079e-04  4.2514086705664589e-04  4.2574013672806992e-04  4.2633936438225942e-04  4.2693854996007458e-04  4.2753769340238057e-04  4.2813679465004615e-04  4.2873585364394418e-04  4.2933487032495210e-04  4.2993384463395123e-04  4.3053277651182724e-04  4.3113166589946980e-04  4.3173051273777310e-04  4.3232931696763499e-04  4.3292807852995799e-04  4.3352679736564882e-04  4.3412547341561795e-04  4.3472410662078056e-04  4.3532269692205579e-04  4.3592124426036728e-04  4.3651974857664274e-04  4.3711820981181398e-04  4.3771662790681719e-04  4.3831500280259284e-04  4.3891333444008579e-04  4.3951162276024486e-04  4.4010986770402348e-04  4.4070806921237910e-04  4.4130622722627353e-04  4.4190434168667311e-04  4.4250241253454808e-04  4.4310043971087311e-04  4.4369842315662727e-04  4.4429636281279381e-04  4.4489425862036057e-04  4.4549211052031948e-04  4.4608991845366679e-04  4.4668768236140320e-04  4.4728540218453379e-04  4.4788307786406794e-04  4.4848070934101942e-04  4.4907829655640617e-04  4.4967583945125056e-04  4.5027333796657948e-04  4.5087079204342414e-04  4.5146820162282001e-04  4.5206556664580724e-04  4.5266288705343000e-04  4.5326016278673725e-04  4.5385739378678199e-04  4.5445457999462185e-04  4.5505172135131878e-04  4.5564881779793919e-04  4.5624586927555408e-04  4.5684287572523869e-04  4.5743983708807276e-04  4.5803675330514037e-04  4.5863362431753014e-04  4.5923045006633531e-04  4.5982723049265339e-04  4.6042396553758647e-04  4.6102065514224094e-04  4.6161729924772772e-04  4.6221389779516249e-04  4.6281045072566526e-04  4.6340695798036043e-04  4.6400341950037698e-04  4.6459983522684841e-04  4.6519620510091295e-04  4.6579252906371295e-04  4.6638880705639544e-04  4.6698503902011201e-04  4.6758122489601897e-04  4.6817736462527698e-04  4.6877345814905111e-04  4.6936950540851129e-04  4.6996550634483182e-04  4.7056146089919173e-04  4.7115736901277448e-04  4.7175323062676822e-04  4.7234904568236561e-04  4.7294481412076396e-04  4.7354053588316520e-04  4.7413621091077577e-04  4.7473183914480675e-04  4.7532742052647383e-04  4.7592295499699727e-04  4.7651844249760225e-04  4.7711388296951823e-04  4.7770927635397957e-04  4.7830462259222493e-04  4.7889992162549789e-04  4.7949517339504678e-04  4.8009037784212436e-04  4.8068553490798814e-04  4.8128064453390032e-04  4.8187570666112772e-04  4.8247072123094219e-04  4.8306568818461983e-04  4.8366060746344154e-04  4.8425547900869312e-04  4.8485030276166496e-04  4.8544507866365202e-04  4.8603980665595412e-04  4.8663448667987582e-04  4.8722911867672637e-04  4.8782370258781992e-04  4.8841823835447506e-04  4.8901272591801530e-04  4.8960716521976872e-04  4.9020155620106871e-04  4.9079589880325278e-04  4.9139019296766352e-04  4.9198443863564831e-04  4.9257863574855918e-04  4.9317278424775316e-04  4.9376688407459194e-04  4.9436093517044206e-04  4.9495493747667477e-04  4.9554889093466616e-04  4.9614279548579722e-04  4.9673665107145381e-04  4.9733045763302656e-04  4.9792421511191088e-04  4.9851792344950694e-04  4.9911158258721978e-04  4.9970519246645979e-04  5.0029875302864154e-04  5.0089226421518463e-04  5.0148572596751394e-04  5.0207913822705860e-04  5.0267250093525325e-04  5.0326581403353689e