<?xml version="1.0"?>
<VTKFile type="UnstructuredGrid"  version="0.1"  >
<UnstructuredGrid>
<Piece  NumberOfPoints="20001" NumberOfCells="20000">
<Points>
<DataArray  type="Float64"  NumberOfComponents="3"  format="ascii">0 0 0  5e-05 0 0  0.0001 0 0  0.00015 0 0  0.0002 0 0  0.00025 0 0  0.0003 0 0  0.00035 0 0  0.0004 0 0  0.00045 0 0  0.0005 0 0  0.00055 0 0  0.0005999999999999999 0 0  0.00065 0 0  0.0007 0 0  0.00075 0 0  0.0008 0 0  0.00085 0 0  0.0009 0 0  0.00095 0 0  0.001 0 0  0.00105 0 0  0.0011 0 0  0.00115 0 0  0.0012 0 0  0.00125 0 0  0.0013 0 0  0.00135 0 0  0.0014 0 0  0.00145 0 0  0.0015 0 0  0.00155 0 0  0.0016 0 0  0.00165 0 0  0.0017 0 0  0.00175 0 0  0.0018 0 0  0.00185 0 0  0.0019 0 0  0.00195 0 0  0.002 0 0  0.00205 0 0  0.0021 0 0  0.00215 0 0  0.0022 0 0  0.00225 0 0  0.0023 0 0  0.00235 0 0  0.0024 0 0  0.00245 0 0  0.0025 0 0  0.00255 0 0  0.0026 0 0  0.00265 0 0  0.0027 0 0  0.00275 0 0  0.0028 0 0  0.00285 0 0  0.0029 0 0  0.00295 0 0  0.003 0 0  0.00305 0 0  0.0031 0 0  0.00315 0 0  0.0032 0 0  0.00325 0 0  0.0033 0 0  0.00335 0 0  0.0034 0 0  0.00345 0 0  0.0035 0 0  0.00355 0 0  0.0036 0 0  0.00365 0 0  0.0037 0 0  0.00375 0 0  0.0038 0 0  0.00385 0 0  0.0039 0 0  0.00395 0 0  0.004 0 0  0.00405 0 0  0.0041 0 0  0.00415 0 0  0.0042 0 0  0.00425 0 0  0.0043 0 0  0.00435 0 0  0.0044 0 0  0.00445 0 0  0.0045 0 0  0.00455 0 0  0.0046 0 0  0.00465 0 0  0.0047 0 0  0.00475 0 0  0.0048 0 0  0.00485 0 0  0.0049 0 0  0.00495 0 0  0.005 0 0  0.00505 0 0  0.0051 0 0  0.00515 0 0  0.0052 0 0  0.00525 0 0  0.0053 0 0  0.00535 0 0  0.0054 0 0  0.00545 0 0  0.0055 0 0  0.00555 0 0  0.0056 0 0  0.00565 0 0  0.0057 0 0  0.00575 0 0  0.0058 0 0  0.00585 0 0  0.0059 0 0  0.00595 0 0  0.006 0 0  0.00605 0 0  0.0061 0 0  0.00615 0 0  0.0062 0 0  0.00625 0 0  0.0063 0 0  0.00635 0 0  0.0064 0 0  0.00645 0 0  0.0065 0 0  0.00655 0 0  0.0066 0 0  0.00665 0 0  0.0067 0 0  0.00675 0 0  0.0068 0 0  0.00685 0 0  0.0069 0 0  0.00695 0 0  0.007 0 0  0.00705 0 0  0.0071 0 0  0.00715 0 0  0.0072 0 0  0.00725 0 0  0.0073 0 0  0.00735 0 0  0.0074 0 0  0.00745 0 0  0.0075 0 0  0.00755 0 0  0.0076 0 0  0.00765 0 0  0.0077 0 0  0.00775 0 0  0.0078 0 0  0.007849999999999999 0 0  0.007900000000000001 0 0  0.00795 0 0  0.008 0 0  0.00805 0 0  0.0081 0 0  0.008149999999999999 0 0  0.008200000000000001 0 0  0.00825 0 0  0.0083 0 0  0.00835 0 0  0.008399999999999999 0 0  0.008449999999999999 0 0  0.008500000000000001 0 0  0.00855 0 0  0.0086 0 0  0.00865 0 0  0.008699999999999999 0 0  0.008750000000000001 0 0  0.008800000000000001 0 0  0.00885 0 0  0.0089 0 0  0.00895 0 0  0.008999999999999999 0 0  0.009050000000000001 0 0  0.0091 0 0  0.00915 0 0  0.0092 0 0  0.00925 0 0  0.009299999999999999 0 0  0.009350000000000001 0 0  0.0094 0 0  0.00945 0 0  0.0095 0 0  0.009549999999999999 0 0  0.009599999999999999 0 0  0.009650000000000001 0 0  0.0097 0 0  0.00975 0 0  0.0098 0 0  0.009849999999999999 0 0  0.009900000000000001 0 0  0.009950000000000001 0 0  0.01 0 0  0.01005 0 0  0.0101 0 0  0.01015 0 0  0.0102 0 0  0.01025 0 0  0.0103 0 0  0.01035 0 0  0.0104 0 0  0.01045 0 0  0.0105 0 0  0.01055 0 0  0.0106 0 0  0.01065 0 0  0.0107 0 0  0.01075 0 0  0.0108 0 0  0.01085 0 0  0.0109 0 0  0.01095 0 0  0.011 0 0  0.01105 0 0  0.0111 0 0  0.01115 0 0  0.0112 0 0  0.01125 0 0  0.0113 0 0  0.01135 0 0  0.0114 0 0  0.01145 0 0  0.0115 0 0  0.01155 0 0  0.0116 0 0  0.01165 0 0  0.0117 0 0  0.01175 0 0  0.0118 0 0  0.01185 0 0  0.0119 0 0  0.01195 0 0  0.012 0 0  0.01205 0 0  0.0121 0 0  0.01215 0 0  0.0122 0 0  0.01225 0 0  0.0123 0 0  0.01235 0 0  0.0124 0 0  0.01245 0 0  0.0125 0 0  0.01255 0 0  0.0126 0 0  0.01265 0 0  0.0127 0 0  0.01275 0 0  0.0128 0 0  0.01285 0 0  0.0129 0 0  0.01295 0 0  0.013 0 0  0.01305 0 0  0.0131 0 0  0.01315 0 0  0.0132 0 0  0.01325 0 0  0.0133 0 0  0.01335 0 0  0.0134 0 0  0.01345 0 0  0.0135 0 0  0.01355 0 0  0.0136 0 0  0.01365 0 0  0.0137 0 0  0.01375 0 0  0.0138 0 0  0.01385 0 0  0.0139 0 0  0.01395 0 0  0.014 0 0  0.01405 0 0  0.0141 0 0  0.01415 0 0  0.0142 0 0  0.01425 0 0  0.0143 0 0  0.01435 0 0  0.0144 0 0  0.01445 0 0  0.0145 0 0  0.01455 0 0  0.0146 0 0  0.01465 0 0  0.0147 0 0  0.01475 0 0  0.0148 0 0  0.01485 0 0  0.0149 0 0  0.01495 0 0  0.015 0 0  0.01505 0 0  0.0151 0 0  0.01515 0 0  0.0152 0 0  0.01525 0 0  0.0153 0 0  0.01535 0 0  0.0154 0 0  0.01545 0 0  0.0155 0 0  0.01555 0 0  0.0156 0 0  0.01565 0 0  0.0157 0 0  0.01575 0 0  0.0158 0 0  0.01585 0 0  0.0159 0 0  0.01595 0 0  0.016 0 0  0.01605 0 0  0.0161 0 0  0.01615 0 0  0.0162 0 0  0.01625 0 0  0.0163 0 0  0.01635 0 0  0.0164 0 0  0.01645 0 0  0.0165 0 0  0.01655 0 0  0.0166 0 0  0.01665 0 0  0.0167 0 0  0.01675 0 0  0.0168 0 0  0.01685 0 0  0.0169 0 0  0.01695 0 0  0.017 0 0  0.01705 0 0  0.0171 0 0  0.01715 0 0  0.0172 0 0  0.01725 0 0  0.0173 0 0  0.01735 0 0  0.0174 0 0  0.01745 0 0  0.0175 0 0  0.01755 0 0  0.0176 0 0  0.01765 0 0  0.0177 0 0  0.01775 0 0  0.0178 0 0  0.01785 0 0  0.0179 0 0  0.01795 0 0  0.018 0 0  0.01805 0 0  0.0181 0 0  0.01815 0 0  0.0182 0 0  0.01825 0 0  0.0183 0 0  0.01835 0 0  0.0184 0 0  0.01845 0 0  0.0185 0 0  0.01855 0 0  0.0186 0 0  0.01865 0 0  0.0187 0 0  0.01875 0 0  0.0188 0 0  0.01885 0 0  0.0189 0 0  0.01895 0 0  0.019 0 0  0.01905 0 0  0.0191 0 0  0.01915 0 0  0.0192 0 0  0.01925 0 0  0.0193 0 0  0.01935 0 0  0.0194 0 0  0.01945 0 0  0.0195 0 0  0.01955 0 0  0.0196 0 0  0.01965 0 0  0.0197 0 0  0.01975 0 0  0.0198 0 0  0.01985 0 0  0.0199 0 0  0.01995 0 0  0.02 0 0  0.02005 0 0  0.0201 0 0  0.02015 0 0  0.0202 0 0  0.02025 0 0  0.0203 0 0  0.02035 0 0  0.0204 0 0  0.02045 0 0  0.0205 0 0  0.02055 0 0  0.0206 0 0  0.02065 0 0  0.0207 0 0  0.02075 0 0  0.0208 0 0  0.02085 0 0  0.0209 0 0  0.02095 0 0  0.021 0 0  0.02105 0 0  0.0211 0 0  0.02115 0 0  0.0212 0 0  0.02125 0 0  0.0213 0 0  0.02135 0 0  0.0214 0 0  0.02145 0 0  0.0215 0 0  0.02155 0 0  0.0216 0 0  0.02165 0 0  0.0217 0 0  0.02175 0 0  0.0218 0 0  0.02185 0 0  0.0219 0 0  0.02195 0 0  0.022 0 0  0.02205 0 0  0.0221 0 0  0.02215 0 0  0.0222 0 0  0.02225 0 0  0.0223 0 0  0.02235 0 0  0.0224 0 0  0.02245 0 0  0.0225 0 0  0.02255 0 0  0.0226 0 0  0.02265 0 0  0.0227 0 0  0.02275 0 0  0.0228 0 0  0.02285 0 0  0.0229 0 0  0.02295 0 0  0.023 0 0  0.02305 0 0  0.0231 0 0  0.02315 0 0  0.0232 0 0  0.02325 0 0  0.0233 0 0  0.02335 0 0  0.0234 0 0  0.02345 0 0  0.0235 0 0  0.02355 0 0  0.0236 0 0  0.02365 0 0  0.0237 0 0  0.02375 0 0  0.0238 0 0  0.02385 0 0  0.0239 0 0  0.02395 0 0  0.024 0 0  0.02405 0 0  0.0241 0 0  0.02415 0 0  0.0242 0 0  0.02425 0 0  0.0243 0 0  0.02435 0 0  0.0244 0 0  0.02445 0 0  0.0245 0 0  0.02455 0 0  0.0246 0 0  0.02465 0 0  0.0247 0 0  0.02475 0 0  0.0248 0 0  0.02485 0 0  0.0249 0 0  0.02495 0 0  0.025 0 0  0.02505 0 0  0.0251 0 0  0.02515 0 0  0.0252 0 0  0.02525 0 0  0.0253 0 0  0.02535 0 0  0.0254 0 0  0.02545 0 0  0.0255 0 0  0.02555 0 0  0.0256 0 0  0.02565 0 0  0.0257 0 0  0.02575 0 0  0.0258 0 0  0.02585 0 0  0.0259 0 0  0.02595 0 0  0.026 0 0  0.02605 0 0  0.0261 0 0  0.02615 0 0  0.0262 0 0  0.02625 0 0  0.0263 0 0  0.02635 0 0  0.0264 0 0  0.02645 0 0  0.0265 0 0  0.02655 0 0  0.0266 0 0  0.02665 0 0  0.0267 0 0  0.02675 0 0  0.0268 0 0  0.02685 0 0  0.0269 0 0  0.02695 0 0  0.027 0 0  0.02705 0 0  0.0271 0 0  0.02715 0 0  0.0272 0 0  0.02725 0 0  0.0273 0 0  0.02735 0 0  0.0274 0 0  0.02745 0 0  0.0275 0 0  0.02755 0 0  0.0276 0 0  0.02765 0 0  0.0277 0 0  0.02775 0 0  0.0278 0 0  0.02785 0 0  0.0279 0 0  0.02795 0 0  0.028 0 0  0.02805 0 0  0.0281 0 0  0.02815 0 0  0.0282 0 0  0.02825 0 0  0.0283 0 0  0.02835 0 0  0.0284 0 0  0.02845 0 0  0.0285 0 0  0.02855 0 0  0.0286 0 0  0.02865 0 0  0.0287 0 0  0.02875 0 0  0.0288 0 0  0.02885 0 0  0.0289 0 0  0.02895 0 0  0.029 0 0  0.02905 0 0  0.0291 0 0  0.02915 0 0  0.0292 0 0  0.02925 0 0  0.0293 0 0  0.02935 0 0  0.0294 0 0  0.02945 0 0  0.0295 0 0  0.02955 0 0  0.0296 0 0  0.02965 0 0  0.0297 0 0  0.02975 0 0  0.0298 0 0  0.02985 0 0  0.0299 0 0  0.02995 0 0  0.03 0 0  0.03005 0 0  0.0301 0 0  0.03015 0 0  0.0302 0 0  0.03025 0 0  0.0303 0 0  0.03035 0 0  0.0304 0 0  0.03045 0 0  0.0305 0 0  0.03055 0 0  0.0306 0 0  0.03065 0 0  0.0307 0 0  0.03075 0 0  0.0308 0 0  0.03085 0 0  0.0309 0 0  0.03095 0 0  0.031 0 0  0.03105 0 0  0.0311 0 0  0.03115 0 0  0.0312 0 0  0.03125 0 0  0.0313 0 0  0.03135 0 0  0.0314 0 0  0.03145 0 0  0.0315 0 0  0.03155 0 0  0.0316 0 0  0.03165 0 0  0.0317 0 0  0.03175 0 0  0.0318 0 0  0.03185 0 0  0.0319 0 0  0.03195 0 0  0.032 0 0  0.03205 0 0  0.0321 0 0  0.03215 0 0  0.0322 0 0  0.03225 0 0  0.0323 0 0  0.03235 0 0  0.0324 0 0  0.03245 0 0  0.0325 0 0  0.03255 0 0  0.0326 0 0  0.03265 0 0  0.0327 0 0  0.03275 0 0  0.0328 0 0  0.03285 0 0  0.0329 0 0  0.03295 0 0  0.033 0 0  0.03305 0 0  0.0331 0 0  0.03315 0 0  0.0332 0 0  0.03325 0 0  0.0333 0 0  0.03335 0 0  0.0334 0 0  0.03345 0 0  0.0335 0 0  0.03355 0 0  0.0336 0 0  0.03365 0 0  0.0337 0 0  0.03375 0 0  0.0338 0 0  0.03385 0 0  0.0339 0 0  0.03395 0 0  0.034 0 0  0.03405 0 0  0.0341 0 0  0.03415 0 0  0.0342 0 0  0.03425 0 0  0.0343 0 0  0.03435 0 0  0.0344 0 0  0.03445 0 0  0.0345 0 0  0.03455 0 0  0.0346 0 0  0.03465 0 0  0.0347 0 0  0.03475 0 0  0.0348 0 0  0.03485 0 0  0.0349 0 0  0.03495 0 0  0.035 0 0  0.03505 0 0  0.0351 0 0  0.03515 0 0  0.0352 0 0  0.03525 0 0  0.0353 0 0  0.03535 0 0  0.0354 0 0  0.03545 0 0  0.0355 0 0  0.03555 0 0  0.0356 0 0  0.03565 0 0  0.0357 0 0  0.03575 0 0  0.0358 0 0  0.03585 0 0  0.0359 0 0  0.03595 0 0  0.036 0 0  0.03605 0 0  0.0361 0 0  0.03615 0 0  0.0362 0 0  0.03625 0 0  0.0363 0 0  0.03635 0 0  0.0364 0 0  0.03645 0 0  0.0365 0 0  0.03655 0 0  0.0366 0 0  0.03665 0 0  0.0367 0 0  0.03675 0 0  0.0368 0 0  0.03685 0 0  0.0369 0 0  0.03695 0 0  0.037 0 0  0.03705 0 0  0.0371 0 0  0.03715 0 0  0.0372 0 0  0.03725 0 0  0.0373 0 0  0.03735 0 0  0.0374 0 0  0.03745 0 0  0.0375 0 0  0.03755 0 0  0.0376 0 0  0.03765 0 0  0.0377 0 0  0.03775 0 0  0.0378 0 0  0.03785 0 0  0.0379 0 0  0.03795 0 0  0.038 0 0  0.03805 0 0  0.0381 0 0  0.0
[...]
<PointData  Scalars="f_13"> 
<DataArray  type="Float64"  Name="f_13"  format="ascii">7.2079073273531211e+93  3.0791162809329534e+89  1.3320879626170107e+89  7.8699107533055638e+88  5.3045016668164788e+88  3.8506292376177583e+88  2.9327537660792522e+88  2.3105660916615484e+88  1.8669332323232732e+88  1.5383895040881532e+88  1.2877833549330863e+88  1.0920419902932028e+88  9.3614981352881726e+87  8.0995649148329032e+87  7.0638113902076321e+87  6.2035134307899959e+87  5.4815015415055545e+87  4.8699995323722526e+87  4.3478921231116560e+87  3.8988834659061266e+87  3.5102273729022542e+87  3.1718338333166596e+87  2.8756288403388067e+87  2.6150882077570027e+87  2.3848930774546716e+87  2.1806719443393667e+87  1.9988051140560142e+87  1.8362748298415216e+87  1.6905492247514273e+87  1.5594916158252744e+87  1.4412889863834692e+87  1.3343951400714573e+87  1.2374851758960228e+87  1.1494187731263706e+87  1.0692103864155510e+87  9.9600490141559392e+86  9.2905763538917159e+86  8.6771781784964862e+86  8.1141487564213495e+86  7.5964699117680708e+86  7.1197151330032174e+86  6.6799688593336266e+86  6.2737582625859035e+86  5.8979953645218780e+86  5.5499277409177194e+86  5.2270963897620981e+86  4.9272996007111683e+86  4.6485618710089122e+86  4.3891070805587735e+86  4.1473352742725206e+86  3.9218025098477029e+86  3.7112033188905546e+86  3.5143554028401644e+86  3.3301862456337914e+86  3.1577213749892217e+86  2.9960740455576432e+86  2.8444361516068949e+86  2.7020702056009212e+86  2.5683022430689507e+86  2.4425155343327337e+86  2.3241450006507467e+86  2.2126722466888644e+86  2.1076211333817114e+86  2.0085538255716250e+86  1.9150672576020146e+86  1.8267899675451893e+86  1.7433792571657752e+86  1.6645186402284387e+86  1.5899155464937596e+86  1.5192992528260545e+86  1.4524190163599537e+86  1.3890423877209815e+86  1.3289536849386126e+86  1.2719526109864903e+86  1.2178529998832724e+86  1.1664816780304534e+86  1.1176774289862137e+86  1.0712900512068436e+86  1.0271794994554272e+86  9.8521510160321952e+85  9.4527484345125921e+85  9.0724471499444195e+85  8.7101811225141947e+85  8.3649528940311325e+85  8.0358285653079993e+85  7.7219331873042009e+85  7.4224465281076499e+85  7.1365991816612122e+85  6.8636689875469334e+85  6.6029777341762872e+85  6.3538881204422400e+85  6.1158009533067404e+85  5.8881525609593133e+85  5.6704124031176798e+85  5.4620808617761336e+85  5.2626871972634977e+85  5.0717876558704588e+85  4.8889637165631714e+85  4.7138204654313676e+85  4.5459850875387040e+85  4.3851054667628329e+85  4.2308488850427089e+85  4.0829008132010851e+85  3.9409637861889194e+85  3.8047563562128468e+85  3.6740121177639582e+85  3.5484787990712300e+85  3.4279174149615371e+85  3.3121014765250794e+85  3.2008162533639039e+85  3.0938580845461286e+85  2.9910337347028050e+85  2.8921597919906857e+85  2.7970621049054697e+85  2.7055752551687980e+85  2.6175420641301983e+85  2.5328131303245427e+85  2.4512463960080084e+85  2.3727067406626145e+85  2.2970655996123833e+85  2.2242006060346507e+85  2.1539952547787604e+85  2.0863385865227256e+85  2.0211248909070448e+85  1.9582534273847855e+85  1.8976281626190214e+85  1.8391575233432626e+85  1.7827541636784905e+85  1.7283347459722703e+85  1.6758197342916444e+85  1.6251331997626481e+85  1.5762026370057835e+85  1.5289587909688998e+85  1.4833354935071342e+85  1.4392695091041890e+85  1.3967003891704554e+85  1.3555703343916890e+85  1.3158240646373360e+85  1.2774086959704166e+85  1.2402736243312456e+85  1.2043704154955392e+85  1.1696527009336032e+85  1.1360760792216259e+85  1.1035980226787285e+85  1.0721777889243700e+85  1.0417763370703164e+85  1.0123562482794863e+85  9.8388165044094417e+84  9.5631814672607154e+84  9.2963274780559928e+84  9.0379380752088215e+84  8.7877096181556252e+84  8.5453507074565002e+84  8.3105816339717631e+84  8.0831338555093447e+84  7.8627494994350880e+84  7.6491808898284323e+84  7.4421900978508146e+84  7.2415485140728567e+84  7.0470364415807684e+84  6.8584427087514238e+84  6.6755643006505989e+84  6.4982060080694644e+84  6.3261800932714232e+84  6.1593059715746238e+84  5.9974099079455930e+84  5.8403247278262094e+84  5.6878895414603824e+84  5.5399494810279864e+84  5.3963554499324326e+84  5.2569638836246699e+84  5.1216365213806170e+84  4.9902401884811789e+84  4.8626465882742831e+84  4.7387321036267312e+84  4.6183776073004584e+84  4.5014682808129719e+84  4.3878934413653469e+84  4.2775463764436042e+84  4.1703241857202070e+84  4.0661276299022108e+84  3.9648609861913693e+84  3.8664319100389623e+84  3.7707513028947310e+84  3.6777331856650328e+84  3.5872945776099980e+84  3.4993553804234742e+84  3.4138382672526394e+84  3.3306685764266729e+84  3.2497742096754741e+84  3.1710855346306814e+84  3.0945352914116004e+84  3.0200585031085697e+84  2.9475923899857143e+84  2.8770762872338715e+84  2.8084515661128076e+84  2.7416615583298959e+84  2.6766514835098251e+84  2.6133683796170333e+84  2.5517610361993856e+84  2.4917799303278510e+84  2.4333771651131282e+84  2.3765064106857818e+84  2.3211228475319109e+84  2.2671831120815719e+84  2.2146452444519892e+84  2.1634686382522573e+84  2.1136139923606281e+84  2.0650432645896387e+84  2.0177196271583032e+84  1.9716074238943333e+84  1.9266721290929611e+84  1.8828803079622677e+84  1.8401995785882122e+84  1.7985985753555499e+84  1.7580469137637870e+84  1.7185151565800655e+84  1.6799747812734883e+84  1.6423981486779272e+84  1.6057584728327129e+84  1.5700297919528792e+84  1.5351869404827742e+84  1.5012055221889301e+84  1.4680618842499928e+84  1.4357330923034116e+84  1.4041969064103486e+84  1.3734317579019291e+84  1.3434167270715997e+84  1.3141315216798571e+84  1.2855564562390827e+84  1.2576724320476308e+84  1.2304609179435997e+84  1.2039039317500108e+84  1.1779840223843286e+84  1.1526842526063838e+84  1.1279881823798747e+84  1.1038798528236707e+84  1.0803437707301260e+84  1.0573648936285964e+84  1.0349286153732206e+84  1.0130207522349309e+84  9.9162752947848370e+83  9.7073556840608646e+83  9.5033187384994979e+83  9.3040382209684326e+83  9.1093914922839556e+83  8.9192593986156629e+83  8.7335261627433620e+83  8.5520792790227175e+83  8.3748094119219448e+83  8.2016102979975081e+83  8.0323786511819795e+83  7.8670140712622150e+83  7.7054189554310575e+83  7.5474984128002290e+83  7.3931601817665733e+83  7.2423145501281545e+83  7.0948742778506187e+83  6.9507545223882115e+83  6.8098727664676701e+83  6.6721487482466345e+83  6.5375043937616764e+83  6.4058637515844290e+83  6.2771529296073077e+83  6.1513000338834844e+83  6.0282351094485170e+83  5.9078900830538788e+83  5.7901987077453103e+83  5.6750965092214185e+83  5.5625207339103933e+83  5.4524102987051223e+83  5.3447057422991577e+83  5.2393491780681630e+83  5.1362842484435232e+83  5.0354560807269134e+83  4.9368112442963059e+83  4.8402977091559464e+83  4.7458648057844224e+83  4.6534631862367455e+83  4.5630447864579383e+83  4.4745627897671797e+83  4.3879715914730408e+83  4.3032267645818569e+83  4.2202850265625451e+83  4.1391042071326009e+83  4.0596432170312352e+83  3.9818620177467917e+83  3.9057215921669718e+83  3.8311839161211793e+83  3.7582119307857162e+83  3.6867695159234171e+83  3.6168214639303781e+83  3.5483334546633828e+83  3.4812720310226028e+83  3.4156045752649942e+83  3.3512992860246932e+83  3.2883251560175481e+83  3.2266519504077390e+83  3.1662501858151459e+83  3.1070911099429626e+83  3.0491466818056433e+83  2.9923895525380754e+83  2.9367930467674512e+83  2.8823311445299696e+83  2.8289784637151229e+83  2.7767102430208857e+83  2.7255023254037437e+83  2.6753311420079755e+83  2.6261736965592010e+83  2.5780075502076223e+83  2.5308108068069952e+83  2.4845620986157507e+83  2.4392405724071648e+83  2.3948258759759059e+83  2.3512981450287575e+83  2.3086379904476325e+83  2.2668264859134990e+83  2.2258451558801080e+83  2.1856759638868478e+83  2.1463013012004053e+83  2.1077039757751758e+83  2.0698672015228199e+83  2.0327745878815423e+83  1.9964101296760925e+83  1.9607581972596902e+83  1.9258035269294174e+83  1.8915312116068987e+83  1.8579266917762841e+83  1.8249757466719157e+83  1.7926644857081975e+83  1.7609793401444886e+83  1.7299070549780861e+83  1.6994346810585020e+83  1.6695495674165594e+83  1.6402393538019426e+83  1.6114919634231141e+83  1.5832955958836639e+83  1.5556387203093440e+83  1.5285100686602403e+83  1.5018986292226750e+83  1.4757936402756638e+83  1.4501845839268322e+83  1.4250611801129146e+83  1.4004133807601160e+83  1.3762313640996786e+83  1.3525055291342628e+83  1.3292264902507903e+83  1.3063850719755759e+83  1.2839723038676974e+83  1.2619794155466523e+83  1.2403978318505260e+83  1.2192191681209373e+83  1.1984352256112047e+83  1.1780379870142613e+83  1.1580196121069328e+83  1.1383724335073348e+83  1.1190889525421911e+83  1.1001618352210438e+83  1.0815839083143360e+83  1.0633481555324890e+83  1.0454477138031892e+83  1.0278758696441352e+83  1.0106260556286229e+83  9.9369184694140213e+82  9.7706695802232394e+82  9.6074523929536571e+82  9.4472067398067773e+82  9.2898737498741805e+82  9.1353958188513056e+82  8.9837165795154001e+82  8.8347808729470557e+82  8.6885347204748570e+82  8.5449252963237661e+82  8.4039009009480893e+82  8.2654109350308407e+82  8.1294058741312026e+82  7.9958372439629071e+82  7.8646575962866586e+82  7.7358204853999640e+82  7.6092804452087633e+82  7.4849929668649815e+82  7.3629144769552496e+82  7.2430023162260758e+82  7.1252147188312087e+82  7.0095107920875111e+82  6.8958504967258088e+82  6.7841946276238164e+82  6.6745047950083787e+82  6.5667434061147181e+82  6.4608736472908879e+82  6.3568594665355938e+82  6.2546655564582557e+82  6.1542573376502293e+82  6.0556009424565376e+82  5.9586631991378175e+82  5.8634116164122087e+82  5.7698143683676341e+82  5.6778402797346701e+82  5.5874588115108846e+82  5.4986400469276660e+82  5.4113546777505920e+82  5.3255739909050280e+82  5.2412698554184610e+82  5.1584147096716552e+82  5.0769815489506830e+82  4.9969439132922523e+82  4.9182758756148858e+82  4.8409520301286829e+82  4.7649474810167563e+82  4.6902378313813517e+82  4.6167991724480900e+82  4.5446080730218835e+82  4.4736415691880898e+82  4.4038771542529493e+82  4.3352927689172020e+82  4.2678667916770930e+82  4.2015780294472101e+82  4.1364057083995328e+82  4.0723294650134231e+82  4.0093293373312390e+82  3.9473857564146550e+82  3.8864795379965861e+82  3.8265918743239848e+82  3.7677043261868262e+82  3.7097988151286880e+82  3.6528576158345203e+82  3.5968633486912528e+82  3.5417989725170234e+82  3.4876477774549525e+82  3.4343933780274229e+82  3.3820197063470535e+82  3.3305110054804531e+82  3.2798518229611873e+82  3.2300270044482814e+82  3.1810216875267664e+82  3.1328212956468992e+82  3.0854115321986632e+82  3.0387783747183737e+82  2.9929080692241724e+82  2.9477871246773698e+82  2.9034023075666421e+82  2.8597406366121207e+82  2.8167893775865693e+82  2.7745360382508511e+82  2.7329683634009781e+82  2.6920743300241456e+82  2.6518421425610968e+82  2.6122602282724200e+82  2.5733172327062360e+82  2.5350020152649915e+82  2.4973036448689355e+82  2.4602113957140999e+82  2.4237147431225565e+82  2.3878033594827455e+82  2.3524671102778721e+82  2.3176960502002510e+82  2.2834804193496155e+82  2.2498106395135043e+82  2.2166773105277334e+82  2.1840712067152011e+82  2.1519832734011469e+82  2.1204046235031392e+82  2.0893265341940828e+82  2.0587404436365401e+82  2.0286379477867605e+82  1.9990107972668187e+82  1.9698508943033066e+82  1.9411502897310458e+82  1.9129011800603613e+82  1.8850959046064762e+82  1.8577269426795920e+82  1.8307869108343241e+82  1.8042685601770991e+82  1.7781647737302257e+82  1.7524685638514061e+82  1.7271730697073522e+82  1.7022715548003771e+82  1.6777574045467219e+82  1.6536241239054679e+82  1.6298653350569314e+82  1.6064747751293824e+82  1.5834462939730757e+82  1.5607738519804779e+82  1.5384515179517194e+82  1.5164734670042239e+82  1.4948339785255609e+82  1.4735274341685635e+82  1.4525483158877600e+82  1.4318912040162412e+82  1.4115507753820411e+82  1.3915218014631721e+82  1.3717991465804833e+82  1.3523777661274761e+82  1.3332527048363229e+82  1.3144190950792280e+82  1.2958721552044313e+82  1.2776071879060430e+82  1.2596195786269990e+82  1.2419047939944284e+82  1.2244583802866994e+82  1.2072759619314864e+82  1.1903532400341686e+82  1.1736859909359124e+82  1.1572700648008041e+82  1.1411013842313862e+82  1.1251759429120202e+82  1.1094898042794424e+82  1.0940391002199474e+82  1.0788200297926481e+82  1.0638288579782061e+82  1.0490619144525428e+82  1.0345155923849610e+82  1.0201863472601707e+82  1.0060706957237155e+82  9.9216521445029502e+81  9.7846653903450976e+81  9.6497136290352955e+81  9.5167643625125767e+81  9.3857856499350418e+81  9.2567460974374098e+81  9.1296148480901402e+81  9.0043615720556852e+81  8.8809564569379345e+81  8.7593701983206424e+81  8.6395739904909733e+81  8.5215395173443545e+81  8.4052389434666590e+81  8.2906449053902803e+81  8.1777305030202024e+81  8.0664692912268351e+81  7.9568352716019019e+81  7.8488028843740736e+81  7.7423470004812017e+81  7.6374429137956082e+81  7.5340663334995986e+81  7.4321933766078924e+81  7.3318005606339853e+81  7.2328647963975684e+81  7.1353633809699824e+81  7.0392739907550272e+81  6.9445746747022205e+81  6.8512438476498559e+81  6.7592602837952821e+81  6.6686031102896270e+81  6.5792518009546515e+81  6.4911861701190676e+81  6.4043863665720478e+81  6.3188328676314352e+81  6.2345064733243514e+81  6.1513883006780190e+81  6.0694597781184472e+81  5.9887026399749168e+81  5.9090989210880498e+81  5.8306309515193946e+81  5.7532813513605809e+81  5.6770330256398997e+81  5.6018691593245041e+81  5.5277732124161569e+81  5.4547289151388363e+81  5.3827202632162275e+81  5.3117315132373411e+81  5.2417471781085973e+81  5.1727520225904796e+81  5.1047310589172730e+81  5.0376695424981025e+81  4.9715529676977027e+81  4.9063670636953894e+81  4.8420977904206068e+81  4.7787313345636095e+81  4.7162541056597504e+81  4.6546527322459530e+81  4.5939140580879773e+81  4.5340251384770183e+81  4.4749732365943295e+81  4.4167458199425292e+81  4.3593305568423102e+81  4.3027153129932321e+81  4.2468881480973525e+81  4.1918373125445406e+81  4.1375512441581467e+81  4.0840185650000116e+81  4.0312280782335294e+81  3.9791687650437033e+81  3.9278297816131082e+81  3.8772004561526152e+81  3.8272702859859050e+81  3.7780289346866522e+81  3.7294662292674027e+81  3.6815721574191832e+81  3.6343368648008001e+81  3.5877506523769438e+81  3.5418039738040727e+81  3.4964874328632950e+81  3.4517917809392181e+81  3.4077079145439601e+81  3.3642268728854755e+81  3.3213398354792674e+81  3.2790381198027715e+81  3.2373131789915192e+81  3.1961565995763039e+81  3.1555600992606326e+81  3.1155155247375856e+81  3.0760148495454703e+81  3.0370501719614080e+81  2.9986137129322646e+81  2.9606978140421304e+81  2.9232949355156857e+81  2.8863976542567999e+81  2.8499986619216571e+81  2.8140907630258350e+81  2.7786668730846278e+81  2.7437200167860068e+81  2.7092433261956732e+81  2.6752300389934925e+81  2.6416734967408287e+81  2.6085671431781466e+81  2.5759045225523314e+81  2.5436792779731980e+81  2.5118851497985926e+81  2.4805159740476244e+81  2.4495656808414477e+81  2.4190282928711348e+81  2.3888979238921093e+81  2.3591687772446372e+81  2.3298351443999407e+81  2.3008914035314342e+81  2.2723320181106223e+81  2.2441515355272062e+81  2.2163445857329632e+81  2.1889058799089461e+81  2.1618302091556208e+81  2.1351124432054594e+81  2.1087475291576226e+81  2.0827304902343239e+81  2.0570564245584550e+81  2.0317205039521307e+81  2.0067179727557236e+81  1.9820441466670635e+81  1.9576944116003922e+81  1.9336642225647381e+81  1.9099491025613777e+81  1.8865446414999997e+81  1.8634464951332674e+81  1.8406503840094101e+81  1.8181520924425919e+81  1.7959474675006314e+81  1.7740324180098624e+81  1.7524029135767692e+81  1.7310549836260952e+81  1.7099847164551810e+81  1.6891882583041757e+81  1.6686618124418802e+81  1.6484016382669374e+81  1.6284040504240702e+81  1.6086654179351524e+81  1.5891821633447879e+81  1.5699507618801746e+81  1.5509677406250072e+81  1.5322296777071244e+81  1.5137332014997276e+81  1.4954749898358654e+81  1.4774517692359864e+81  1.4596603141483183e+81  1.4420974462018391e+81  1.4247600334716482e+81  1.4076449897564771e+81  1.3907492738681647e+81  1.3740698889328621e+81  1.3576038817037601e+81  1.3413483418851730e+81  1.3253004014677313e+81  1.3094572340745220e+81  1.2938160543179719e+81  1.2783741171672815e+81  1.2631287173262574e+81  1.2480771886213136e+81  1.2332169033995068e+81  1.2185452719363972e+81  1.2040597418536097e+81  1.1897577975458683e+81  1.1756369596173871e+81  1.1616947843274437e+81  1.1479288630449533e+81  1.1343368217119328e+81  1.1209163203156572e+81  1.1076650523693776e+81  1.0945807444014672e+81  1.0816611554528169e+81  1.0689040765823788e+81  1.0563073303806804e+81  1.0438687704912003e+81  1.0315862811394606e+81  1.0194577766696876e+81  1.0074812010889568e+81  9.9565452761863698e+80  9.8397575825305393e+80  9.7244292332523200e+80  9.6105408107958608e+80  9.4980731725146905e+80  9.3870074465343445e+80  9.2773250276811532e+80  9.1690075734760196e+80  9.0620370001919928e+80  8.9563954789748343e+80  8.8520654320251887e+80  8.7490295288415573e+80  8.6472706825227842e+80  8.5467720461295043e+80  8.4475170091030662e+80  8.3494891937412004e+80  8.2526724517295421e+80  8.1570508607279072e+80  8.0626087210105782e+80  7.9693305521594878e+80  7.8772010898096407e+80  7.7862052824457018e+80  7.6963282882490297e+80  7.6075554719942803e+80  7.5198724019946983e+80  7.4332648470953671e+80  7.3477187737136472e+80  7.2632203429257725e+80  7.1797559075992228e+80  7.0973120095698260e+80  7.0158753768629268e+80  6.9354329209579418e+80  6.8559717340954752e+80  6.7774790866265027e+80  6.6999424244026182e+80  6.6233493662069637e+80  6.5476877012250240e+80  6.4729453865545787e+80  6.3991105447543678e+80  6.3261714614306090e+80  6.2541165828608703e+80  6.1829345136547329e+80  6.1126140144504349e+80  6.0431439996472035e+80  5.9745135351724198e+80  5.9067118362832119e+80  5.8397282654018432e+80  5.7735523299844060e+80  5.7081736804222028e+80  5.6435821079753197e+80  5.5797675427378902e+80  5.5167200516344916e+80  5.4544298364472572e+80  5.3928872318730396e+80  5.3320827036103264e+80  5.2720068464753221e+80  5.2126503825466957e+80  5.1540041593386783e+80  5.0960591480018661e+80  5.0388064415514094e+80  4.9822372531221220e+80  4.9263429142500295e+80  4.8711148731800368e+80  4.8165446931991496e+80  4.7626240509949786e+80  4.7093447350390301e+80  4.6566986439944104e+80  4.6046777851476106e+80  4.5532742728638853e+80  4.5024803270659111e+80  4.4522882717353787e+80  4.4026905334370764e+80  4.3536796398651748e+80  4.3052482184113213e+80  4.2573889947542416e+80  4.2100947914703909e+80  4.1633585266655396e+80  4.1171732126267087e+80  4.0715319544943150e+80  4.0264279489541323e+80  3.9818544829487436e+80  3.9378049324082523e+80  3.8942727609998607e+80  3.8512515188960398e+80  3.8087348415610717e+80  3.7667164485555364e+80  3.7251901423586221e+80  3.6841498072078446e+80  3.6435894079559774e+80  3.6035029889449120e+80  3.5638846728961244e+80  3.5247286598176248e+80  3.4860292259269653e+80  3.4477807225901715e+80  3.4099775752763068e+80  3.3726142825274279e+80  3.3356854149437054e+80  3.2991856141834664e+80  3.2631095919779016e+80  3.2274521291602760e+80  3.1922080747093147e+80  3.1573723448066672e+80  3.1229399219081159e+80  3.0889058538284088e+80  3.0552652528394392e+80  3.0220132947816095e+80  2.9891452181881576e+80  2.9566563234222375e+80  2.9245419718265842e+80  2.8927975848855208e+80  2.8614186433992002e+80  2.8304006866698053e+80  2.7997393116995514e+80  2.7694301724003714e+80  2.7394689788150024e+80  2.7098514963493806e+80  2.6805735450161231e+80  2.6516309986889635e+80  2.6230197843679444e+80  2.5947358814551902e+80  2.5667753210411793e+80  2.5391341852012530e+80  2.5118086063022687e+80  2.4847947663192182e+80  2.4580888961616652e+80  2.4316872750098801e+80  2.4055862296604660e+80  2.3797821338813733e+80  2.3542714077761777e+80  2.3290505171574186e+80  2.3041159729289444e+80  2.2794643304770391e+80  2.2550921890702680e+80  2.2309961912678808e+80  2.2071730223366357e+80  2.1836194096759539e