<?xml version="1.0"?>
<VTKFile type="UnstructuredGrid"  version="0.1"  >
<UnstructuredGrid>
<Piece  NumberOfPoints="10001" NumberOfCells="10000">
<Points>
<DataArray  type="Float64"  NumberOfComponents="3"  format="ascii">0 0 0  0.0001 0 0  0.0002 0 0  0.0003 0 0  0.0004 0 0  0.0005 0 0  0.0005999999999999999 0 0  0.0007 0 0  0.0008 0 0  0.0009 0 0  0.001 0 0  0.0011 0 0  0.0012 0 0  0.0013 0 0  0.0014 0 0  0.0015 0 0  0.0016 0 0  0.0017 0 0  0.0018 0 0  0.0019 0 0  0.002 0 0  0.0021 0 0  0.0022 0 0  0.0023 0 0  0.0024 0 0  0.0025 0 0  0.0026 0 0  0.0027 0 0  0.0028 0 0  0.0029 0 0  0.003 0 0  0.0031 0 0  0.0032 0 0  0.0033 0 0  0.0034 0 0  0.0035 0 0  0.0036 0 0  0.0037 0 0  0.0038 0 0  0.0039 0 0  0.004 0 0  0.0041 0 0  0.0042 0 0  0.0043 0 0  0.0044 0 0  0.0045 0 0  0.0046 0 0  0.0047 0 0  0.0048 0 0  0.0049 0 0  0.005 0 0  0.0051 0 0  0.0052 0 0  0.0053 0 0  0.0054 0 0  0.0055 0 0  0.0056 0 0  0.0057 0 0  0.0058 0 0  0.0059 0 0  0.006 0 0  0.0061 0 0  0.0062 0 0  0.0063 0 0  0.0064 0 0  0.0065 0 0  0.0066 0 0  0.0067 0 0  0.0068 0 0  0.0069 0 0  0.007 0 0  0.0071 0 0  0.0072 0 0  0.0073 0 0  0.0074 0 0  0.0075 0 0  0.0076 0 0  0.0077 0 0  0.0078 0 0  0.007900000000000001 0 0  0.008 0 0  0.0081 0 0  0.008200000000000001 0 0  0.0083 0 0  0.008399999999999999 0 0  0.008500000000000001 0 0  0.0086 0 0  0.008699999999999999 0 0  0.008800000000000001 0 0  0.0089 0 0  0.008999999999999999 0 0  0.0091 0 0  0.0092 0 0  0.009299999999999999 0 0  0.0094 0 0  0.0095 0 0  0.009599999999999999 0 0  0.0097 0 0  0.0098 0 0  0.009900000000000001 0 0  0.01 0 0  0.0101 0 0  0.0102 0 0  0.0103 0 0  0.0104 0 0  0.0105 0 0  0.0106 0 0  0.0107 0 0  0.0108 0 0  0.0109 0 0  0.011 0 0  0.0111 0 0  0.0112 0 0  0.0113 0 0  0.0114 0 0  0.0115 0 0  0.0116 0 0  0.0117 0 0  0.0118 0 0  0.0119 0 0  0.012 0 0  0.0121 0 0  0.0122 0 0  0.0123 0 0  0.0124 0 0  0.0125 0 0  0.0126 0 0  0.0127 0 0  0.0128 0 0  0.0129 0 0  0.013 0 0  0.0131 0 0  0.0132 0 0  0.0133 0 0  0.0134 0 0  0.0135 0 0  0.0136 0 0  0.0137 0 0  0.0138 0 0  0.0139 0 0  0.014 0 0  0.0141 0 0  0.0142 0 0  0.0143 0 0  0.0144 0 0  0.0145 0 0  0.0146 0 0  0.0147 0 0  0.0148 0 0  0.0149 0 0  0.015 0 0  0.0151 0 0  0.0152 0 0  0.0153 0 0  0.0154 0 0  0.0155 0 0  0.0156 0 0  0.0157 0 0  0.0158 0 0  0.0159 0 0  0.016 0 0  0.0161 0 0  0.0162 0 0  0.0163 0 0  0.0164 0 0  0.0165 0 0  0.0166 0 0  0.0167 0 0  0.0168 0 0  0.0169 0 0  0.017 0 0  0.0171 0 0  0.0172 0 0  0.0173 0 0  0.0174 0 0  0.0175 0 0  0.0176 0 0  0.0177 0 0  0.0178 0 0  0.0179 0 0  0.018 0 0  0.0181 0 0  0.0182 0 0  0.0183 0 0  0.0184 0 0  0.0185 0 0  0.0186 0 0  0.0187 0 0  0.0188 0 0  0.0189 0 0  0.019 0 0  0.0191 0 0  0.0192 0 0  0.0193 0 0  0.0194 0 0  0.0195 0 0  0.0196 0 0  0.0197 0 0  0.0198 0 0  0.0199 0 0  0.02 0 0  0.0201 0 0  0.0202 0 0  0.0203 0 0  0.0204 0 0  0.0205 0 0  0.0206 0 0  0.0207 0 0  0.0208 0 0  0.0209 0 0  0.021 0 0  0.0211 0 0  0.0212 0 0  0.0213 0 0  0.0214 0 0  0.0215 0 0  0.0216 0 0  0.0217 0 0  0.0218 0 0  0.0219 0 0  0.022 0 0  0.0221 0 0  0.0222 0 0  0.0223 0 0  0.0224 0 0  0.0225 0 0  0.0226 0 0  0.0227 0 0  0.0228 0 0  0.0229 0 0  0.023 0 0  0.0231 0 0  0.0232 0 0  0.0233 0 0  0.0234 0 0  0.0235 0 0  0.0236 0 0  0.0237 0 0  0.0238 0 0  0.0239 0 0  0.024 0 0  0.0241 0 0  0.0242 0 0  0.0243 0 0  0.0244 0 0  0.0245 0 0  0.0246 0 0  0.0247 0 0  0.0248 0 0  0.0249 0 0  0.025 0 0  0.0251 0 0  0.0252 0 0  0.0253 0 0  0.0254 0 0  0.0255 0 0  0.0256 0 0  0.0257 0 0  0.0258 0 0  0.0259 0 0  0.026 0 0  0.0261 0 0  0.0262 0 0  0.0263 0 0  0.0264 0 0  0.0265 0 0  0.0266 0 0  0.0267 0 0  0.0268 0 0  0.0269 0 0  0.027 0 0  0.0271 0 0  0.0272 0 0  0.0273 0 0  0.0274 0 0  0.0275 0 0  0.0276 0 0  0.0277 0 0  0.0278 0 0  0.0279 0 0  0.028 0 0  0.0281 0 0  0.0282 0 0  0.0283 0 0  0.0284 0 0  0.0285 0 0  0.0286 0 0  0.0287 0 0  0.0288 0 0  0.0289 0 0  0.029 0 0  0.0291 0 0  0.0292 0 0  0.0293 0 0  0.0294 0 0  0.0295 0 0  0.0296 0 0  0.0297 0 0  0.0298 0 0  0.0299 0 0  0.03 0 0  0.0301 0 0  0.0302 0 0  0.0303 0 0  0.0304 0 0  0.0305 0 0  0.0306 0 0  0.0307 0 0  0.0308 0 0  0.0309 0 0  0.031 0 0  0.0311 0 0  0.0312 0 0  0.0313 0 0  0.0314 0 0  0.0315 0 0  0.0316 0 0  0.0317 0 0  0.0318 0 0  0.0319 0 0  0.032 0 0  0.0321 0 0  0.0322 0 0  0.0323 0 0  0.0324 0 0  0.0325 0 0  0.0326 0 0  0.0327 0 0  0.0328 0 0  0.0329 0 0  0.033 0 0  0.0331 0 0  0.0332 0 0  0.0333 0 0  0.0334 0 0  0.0335 0 0  0.0336 0 0  0.0337 0 0  0.0338 0 0  0.0339 0 0  0.034 0 0  0.0341 0 0  0.0342 0 0  0.0343 0 0  0.0344 0 0  0.0345 0 0  0.0346 0 0  0.0347 0 0  0.0348 0 0  0.0349 0 0  0.035 0 0  0.0351 0 0  0.0352 0 0  0.0353 0 0  0.0354 0 0  0.0355 0 0  0.0356 0 0  0.0357 0 0  0.0358 0 0  0.0359 0 0  0.036 0 0  0.0361 0 0  0.0362 0 0  0.0363 0 0  0.0364 0 0  0.0365 0 0  0.0366 0 0  0.0367 0 0  0.0368 0 0  0.0369 0 0  0.037 0 0  0.0371 0 0  0.0372 0 0  0.0373 0 0  0.0374 0 0  0.0375 0 0  0.0376 0 0  0.0377 0 0  0.0378 0 0  0.0379 0 0  0.038 0 0  0.0381 0 0  0.0382 0 0  0.0383 0 0  0.0384 0 0  0.0385 0 0  0.0386 0 0  0.0387 0 0  0.0388 0 0  0.0389 0 0  0.039 0 0  0.0391 0 0  0.0392 0 0  0.0393 0 0  0.0394 0 0  0.0395 0 0  0.0396 0 0  0.0397 0 0  0.0398 0 0  0.0399 0 0  0.04 0 0  0.0401 0 0  0.0402 0 0  0.0403 0 0  0.0404 0 0  0.0405 0 0  0.0406 0 0  0.0407 0 0  0.0408 0 0  0.0409 0 0  0.041 0 0  0.0411 0 0  0.0412 0 0  0.0413 0 0  0.0414 0 0  0.0415 0 0  0.0416 0 0  0.0417 0 0  0.0418 0 0  0.0419 0 0  0.042 0 0  0.0421 0 0  0.0422 0 0  0.0423 0 0  0.0424 0 0  0.0425 0 0  0.0426 0 0  0.0427 0 0  0.0428 0 0  0.0429 0 0  0.043 0 0  0.0431 0 0  0.0432 0 0  0.0433 0 0  0.0434 0 0  0.0435 0 0  0.0436 0 0  0.0437 0 0  0.0438 0 0  0.0439 0 0  0.044 0 0  0.0441 0 0  0.0442 0 0  0.0443 0 0  0.0444 0 0  0.0445 0 0  0.0446 0 0  0.0447 0 0  0.0448 0 0  0.0449 0 0  0.045 0 0  0.0451 0 0  0.0452 0 0  0.0453 0 0  0.0454 0 0  0.0455 0 0  0.0456 0 0  0.0457 0 0  0.0458 0 0  0.0459 0 0  0.046 0 0  0.0461 0 0  0.0462 0 0  0.0463 0 0  0.0464 0 0  0.0465 0 0  0.0466 0 0  0.0467 0 0  0.0468 0 0  0.0469 0 0  0.047 0 0  0.0471 0 0  0.0472 0 0  0.0473 0 0  0.0474 0 0  0.0475 0 0  0.0476 0 0  0.0477 0 0  0.0478 0 0  0.0479 0 0  0.048 0 0  0.0481 0 0  0.0482 0 0  0.0483 0 0  0.0484 0 0  0.0485 0 0  0.0486 0 0  0.0487 0 0  0.0488 0 0  0.0489 0 0  0.049 0 0  0.0491 0 0  0.0492 0 0  0.0493 0 0  0.0494 0 0  0.0495 0 0  0.0496 0 0  0.0497 0 0  0.0498 0 0  0.0499 0 0  0.05 0 0  0.0501 0 0  0.0502 0 0  0.0503 0 0  0.0504 0 0  0.0505 0 0  0.0506 0 0  0.0507 0 0  0.0508 0 0  0.0509 0 0  0.051 0 0  0.0511 0 0  0.0512 0 0  0.0513 0 0  0.0514 0 0  0.0515 0 0  0.0516 0 0  0.0517 0 0  0.0518 0 0  0.0519 0 0  0.052 0 0  0.0521 0 0  0.0522 0 0  0.0523 0 0  0.0524 0 0  0.0525 0 0  0.0526 0 0  0.0527 0 0  0.0528 0 0  0.0529 0 0  0.053 0 0  0.0531 0 0  0.0532 0 0  0.0533 0 0  0.0534 0 0  0.0535 0 0  0.0536 0 0  0.0537 0 0  0.0538 0 0  0.0539 0 0  0.054 0 0  0.0541 0 0  0.0542 0 0  0.0543 0 0  0.0544 0 0  0.0545 0 0  0.0546 0 0  0.0547 0 0  0.0548 0 0  0.0549 0 0  0.055 0 0  0.0551 0 0  0.0552 0 0  0.0553 0 0  0.0554 0 0  0.0555 0 0  0.0556 0 0  0.0557 0 0  0.0558 0 0  0.0559 0 0  0.056 0 0  0.0561 0 0  0.0562 0 0  0.0563 0 0  0.0564 0 0  0.0565 0 0  0.0566 0 0  0.0567 0 0  0.0568 0 0  0.0569 0 0  0.057 0 0  0.0571 0 0  0.0572 0 0  0.0573 0 0  0.0574 0 0  0.0575 0 0  0.0576 0 0  0.0577 0 0  0.0578 0 0  0.0579 0 0  0.058 0 0  0.0581 0 0  0.0582 0 0  0.0583 0 0  0.0584 0 0  0.0585 0 0  0.0586 0 0  0.0587 0 0  0.0588 0 0  0.0589 0 0  0.059 0 0  0.0591 0 0  0.0592 0 0  0.0593 0 0  0.0594 0 0  0.0595 0 0  0.0596 0 0  0.0597 0 0  0.0598 0 0  0.0599 0 0  0.06 0 0  0.0601 0 0  0.0602 0 0  0.0603 0 0  0.0604 0 0  0.0605 0 0  0.0606 0 0  0.0607 0 0  0.0608 0 0  0.0609 0 0  0.061 0 0  0.0611 0 0  0.0612 0 0  0.0613 0 0  0.0614 0 0  0.0615 0 0  0.0616 0 0  0.0617 0 0  0.0618 0 0  0.0619 0 0  0.062 0 0  0.0621 0 0  0.0622 0 0  0.0623 0 0  0.0624 0 0  0.0625 0 0  0.0626 0 0  0.06270000000000001 0 0  0.06279999999999999 0 0  0.0629 0 0  0.063 0 0  0.0631 0 0  0.06320000000000001 0 0  0.0633 0 0  0.0634 0 0  0.0635 0 0  0.0636 0 0  0.06370000000000001 0 0  0.0638 0 0  0.0639 0 0  0.064 0 0  0.0641 0 0  0.06419999999999999 0 0  0.0643 0 0  0.0644 0 0  0.0645 0 0  0.0646 0 0  0.06469999999999999 0 0  0.0648 0 0  0.0649 0 0  0.065 0 0  0.06510000000000001 0 0  0.06519999999999999 0 0  0.0653 0 0  0.0654 0 0  0.0655 0 0  0.06560000000000001 0 0  0.06569999999999999 0 0  0.0658 0 0  0.0659 0 0  0.066 0 0  0.06610000000000001 0 0  0.06619999999999999 0 0  0.0663 0 0  0.0664 0 0  0.0665 0 0  0.06660000000000001 0 0  0.0667 0 0  0.0668 0 0  0.0669 0 0  0.067 0 0  0.06710000000000001 0 0  0.0672 0 0  0.0673 0 0  0.0674 0 0  0.0675 0 0  0.06759999999999999 0 0  0.0677 0 0  0.0678 0 0  0.0679 0 0  0.068 0 0  0.06809999999999999 0 0  0.0682 0 0  0.0683 0 0  0.0684 0 0  0.06850000000000001 0 0  0.06859999999999999 0 0  0.0687 0 0  0.0688 0 0  0.0689 0 0  0.06900000000000001 0 0  0.06909999999999999 0 0  0.0692 0 0  0.0693 0 0  0.0694 0 0  0.06950000000000001 0 0  0.0696 0 0  0.0697 0 0  0.0698 0 0  0.0699 0 0  0.07000000000000001 0 0  0.0701 0 0  0.0702 0 0  0.0703 0 0  0.0704 0 0  0.07049999999999999 0 0  0.0706 0 0  0.0707 0 0  0.0708 0 0  0.0709 0 0  0.07099999999999999 0 0  0.0711 0 0  0.0712 0 0  0.0713 0 0  0.07140000000000001 0 0  0.07149999999999999 0 0  0.0716 0 0  0.0717 0 0  0.0718 0 0  0.07190000000000001 0 0  0.07199999999999999 0 0  0.0721 0 0  0.0722 0 0  0.0723 0 0  0.07240000000000001 0 0  0.0725 0 0  0.0726 0 0  0.0727 0 0  0.0728 0 0  0.07290000000000001 0 0  0.073 0 0  0.0731 0 0  0.0732 0 0  0.0733 0 0  0.07340000000000001 0 0  0.0735 0 0  0.0736 0 0  0.0737 0 0  0.0738 0 0  0.07389999999999999 0 0  0.074 0 0  0.0741 0 0  0.0742 0 0  0.0743 0 0  0.07439999999999999 0 0  0.0745 0 0  0.0746 0 0  0.0747 0 0  0.07480000000000001 0 0  0.07489999999999999 0 0  0.075 0 0  0.0751 0 0  0.0752 0 0  0.07530000000000001 0 0  0.07539999999999999 0 0  0.0755 0 0  0.0756 0 0  0.0757 0 0  0.07580000000000001 0 0  0.0759 0 0  0.076 0 0  0.0761 0 0  0.0762 0 0  0.07630000000000001 0 0  0.0764 0 0  0.0765 0 0  0.0766
[...]
<PointData  Scalars="f_18"> 
<DataArray  type="Float64"  Name="f_18"  format="ascii">0.0000000000000000e+00  3.0901244569961244e-07  6.1802486090117352e-07  9.2703721510663486e-07  1.2360494778179544e-06  1.5450616185370989e-06  1.8540736067660466e-06  2.1630854120067925e-06  2.4720970037613478e-06  2.7811083515317455e-06  3.0901194248200431e-06  3.3991301931283254e-06  3.7081406259587045e-06  4.0171506928133275e-06  4.3261603631943802e-06  4.6351696066040846e-06  4.9441783925447044e-06  5.2531866905185482e-06  5.5621944700279770e-06  5.8712017005753984e-06  6.1802083516632785e-06  6.4892143927941342e-06  6.7982197934705510e-06  7.1072245231951695e-06  7.4162285514707023e-06  7.7252318477999288e-06  8.0342343816856971e-06  8.3432361226309383e-06  8.6522370401386530e-06  8.9612371037119315e-06  9.2702362828539455e-06  9.5792345470679496e-06  9.8882318658572968e-06  1.0197228208725421e-05  1.0506223545175866e-05  1.0815217844712268e-05  1.1124211076838365e-05  1.1433203211058006e-05  1.1742194216875139e-05  1.2051184063793828e-05  1.2360172721318258e-05  1.2669160158952715e-05  1.2978146346201625e-05  1.3287131252569526e-05  1.3596114847561084e-05  1.3905097100681094e-05  1.4214077981434488e-05  1.4523057459326324e-05  1.4832035503861801e-05  1.5141012084546272e-05  1.5449987170885222e-05  1.5758960732384280e-05  1.6067932738549240e-05  1.6376903158886041e-05  1.6685871962900779e-05  1.6994839120099702e-05  1.7303804599989249e-05  1.7612768372075981e-05  1.7921730405866655e-05  1.8230690670868205e-05  1.8539649136587717e-05  1.8848605772532464e-05  1.9157560548209920e-05  1.9466513433127712e-05  1.9775464396793667e-05  2.0084413408715802e-05  2.0393360438402333e-05  2.0702305455361657e-05  2.1011248429102379e-05  2.1320189329133303e-05  2.1629128124963437e-05  2.1938064786101999e-05  2.2246999282058420e-05  2.2555931582342341e-05  2.2864861656463618e-05  2.3173789473932320e-05  2.3482715004258769e-05  2.3791638216953474e-05  2.4100559081527198e-05  2.4409477567490924e-05  2.4718393644355874e-05  2.5027307281633501e-05  2.5336218448835521e-05  2.5645127115473857e-05  2.5954033251060711e-05  2.6262936825108523e-05  2.6571837807129980e-05  2.6880736166638035e-05  2.7189631873145902e-05  2.7498524896167038e-05  2.7807415205215184e-05  2.8116302769804345e-05  2.8425187559448786e-05  2.8734069543663057e-05  2.9042948691961988e-05  2.9351824973860672e-05  2.9660698358874500e-05  2.9969568816519152e-05  3.0278436316310583e-05  3.0587300827765046e-05  3.0896162320399089e-05  3.1205020763729559e-05  3.1513876127273610e-05  3.1822728380548687e-05  3.2131577493072542e-05  3.2440423434363244e-05  3.2749266173939173e-05  3.3058105681319023e-05  3.3366941926021825e-05  3.3675774877566909e-05  3.3984604505473929e-05  3.4293430779262900e-05  3.4602253668454106e-05  3.4911073142568233e-05  3.5219889171126264e-05  3.5528701723649527e-05  3.5837510769659704e-05  3.6146316278678820e-05  3.6455118220229229e-05  3.6763916563833667e-05  3.7072711279015206e-05  3.7381502335297281e-05  3.7690289702203700e-05  3.7999073349258606e-05  3.8307853245986558e-05  3.8616629361912430e-05  3.8925401666561493e-05  3.9234170129459400e-05  3.9542934720132182e-05  3.9851695408106244e-05  4.0160452162908381e-05  4.0469204954065778e-05  4.0777953751106012e-05  4.1086698523557043e-05  4.1395439240947257e-05  4.1704175872805393e-05  4.2012908388660628e-05  4.2321636758042531e-05  4.2630360950481089e-05  4.2939080935506700e-05  4.3247796682650177e-05  4.3556508161442756e-05  4.3865215341416080e-05  4.4173918192102217e-05  4.4482616683033671e-05  4.4791310783743384e-05  4.5100000463764706e-05  4.5408685692631455e-05  4.5717366439877861e-05  4.6026042675038616e-05  4.6334714367648844e-05  4.6643381487244139e-05  4.6952044003360513e-05  4.7260701885534446e-05  4.7569355103302894e-05  4.7878003626203231e-05  4.8186647423773340e-05  4.8495286465551552e-05  4.8803920721076671e-05  4.9112550159887956e-05  4.9421174751525167e-05  4.9729794465528525e-05  5.0038409271438738e-05  5.0347019138796983e-05  5.0655624037144959e-05  5.0964223936024829e-05  5.1272818804979243e-05  5.1581408613551374e-05  5.1889993331284866e-05  5.2198572927723890e-05  5.2507147372413105e-05  5.2815716634897686e-05  5.3124280684723316e-05  5.3432839491436205e-05  5.3741393024583086e-05  5.4049941253711187e-05  5.4358484148368257e-05  5.4667021678102588e-05  5.4975553812462999e-05  5.5284080520998839e-05  5.5592601773259992e-05  5.5901117538796898e-05  5.6209627787160510e-05  5.6518132487902326e-05  5.6826631610574417e-05  5.7135125124729372e-05  5.7443612999920368e-05  5.7752095205701116e-05  5.8060571711625893e-05  5.8369042487249548e-05  5.8677507502127468e-05  5.8985966725815635e-05  5.9294420127870608e-05  5.9602867677849515e-05  5.9911309345310025e-05  6.0219745099810438e-05  6.0528174910909602e-05  6.0836598748166985e-05  6.1145016581142612e-05  6.1453428379397109e-05  6.1761834112491676e-05  6.2070233749988190e-05  6.2378627261449059e-05  6.2687014616437297e-05  6.2995395784516572e-05  6.3303770735251093e-05  6.3612139438205746e-05  6.3920501862945988e-05  6.4228857979037950e-05  6.4537207756048336e-05  6.4845551163544499e-05  6.5153888171094415e-05  6.5462218748266684e-05  6.5770542864630570e-05  6.6078860489755920e-05  6.6387171593213271e-05  6.6695476144573785e-05  6.7003774113409261e-05  6.7312065469292174e-05  6.7620350181795609e-05  6.7928628220493344e-05  6.8236899554959847e-05  6.8545164154770169e-05  6.8853421989500065e-05  6.9161673028725955e-05  6.9469917242024896e-05  6.9778154598974717e-05  7.0086385069153843e-05  7.0394608622141390e-05  7.0702825227517154e-05  7.1011034854861607e-05  7.1319237473755964e-05  7.1627433053782054e-05  7.1935621564522448e-05  7.2243802975560425e-05  7.2551977256479953e-05  7.2860144376865678e-05  7.3168304306302977e-05  7.3476457014377933e-05  7.3784602470677347e-05  7.4092740644788726e-05  7.4400871506300278e-05  7.4708995024800974e-05  7.5017111169880488e-05  7.5325219911129239e-05  7.5633321218138337e-05  7.5941415060499666e-05  7.6249501407805813e-05  7.6557580229650167e-05  7.6865651495626751e-05  7.7173715175330471e-05  7.7481771238356841e-05  7.7789819654302191e-05  7.8097860392763662e-05  7.8405893423339059e-05  7.8713918715627001e-05  7.9021936239226866e-05  7.9329945963738764e-05  7.9637947858763629e-05  7.9945941893903104e-05  8.0253928038759669e-05  8.0561906262936593e-05  8.0869876536037873e-05  8.1177838827668295e-05  8.1485793107433403e-05  8.1793739344939622e-05  8.2101677509794122e-05  8.2409607571604874e-05  8.2717529499980646e-05  8.3025443264530982e-05  8.3333348834866276e-05  8.3641246180597698e-05  8.3949135271337269e-05  8.4257016076697797e-05  8.4564888566292877e-05  8.4872752709737011e-05  8.5180608476645461e-05  8.5488455836634286e-05  8.5796294759320416e-05  8.6104125214321660e-05  8.6411947171256584e-05  8.6719760599744626e-05  8.7027565469406046e-05  8.7335361749862002e-05  8.7643149410734464e-05  8.7950928421646254e-05  8.8258698752221036e-05  8.8566460372083329e-05  8.8874213250858558e-05  8.9181957358172947e-05  8.9489692663653658e-05  8.9797419136928636e-05  9.0105136747626750e-05  9.0412845465377749e-05  9.0720545259812235e-05  9.1028236100561665e-05  9.1335917957258443e-05  9.1643590799535843e-05  9.1951254597028004e-05  9.2258909319369947e-05  9.2566554936197642e-05  9.2874191417147899e-05  9.3181818731858515e-05  9.3489436849968104e-05  9.3797045741116214e-05  9.4104645374943325e-05  9.4412235721090762e-05  9.4719816749200890e-05  9.5027388428916889e-05  9.5334950729882901e-05  9.5642503621743989e-05  9.5950047074146150e-05  9.6257581056736306e-05  9.6565105539162297e-05  9.6872620491072900e-05  9.7180125882117895e-05  9.7487621681947956e-05  9.7795107860214664e-05  9.8102584386570646e-05  9.8410051230669407e-05  9.8717508362165457e-05  9.9024955750714186e-05  9.9332393365972069e-05  9.9639821177596407e-05  9.9947239155245558e-05  1.0025464726857883e-04  1.0056204548725646e-04  1.0086943378093977e-04  1.0117681211929100e-04  1.0148418047197328e-04  1.0179153880865087e-04  1.0209888709898892e-04  1.0240622531265369e-04  1.0271355341931231e-04  1.0302087138863291e-04  1.0332817919028475e-04  1.0363547679393792e-04  1.0394276416926368e-04  1.0425004128593417e-04  1.0455730811362262e-04  1.0486456462200329e-04  1.0517181078075133e-04  1.0547904655954308e-04  1.0578627192805575e-04  1.0609348685596769e-04  1.0640069131295831e-04  1.0670788526870787e-04  1.0701506869289788e-04  1.0732224155521070e-04  1.0762940382532990e-04  1.0793655547294003e-04  1.0824369646772663e-04  1.0855082677937633e-04  1.0885794637757685e-04  1.0916505523201693e-04  1.0947215331238637e-04  1.0977924058837608e-04  1.1008631702967803e-04  1.1039338260598517e-04  1.1070043728699160e-04  1.1100748104239249e-04  1.1131451384188404e-04  1.1162153565516361e-04  1.1192854645192957e-04  1.1223554620188145e-04  1.1254253487471976e-04  1.1284951244014621e-04  1.1315647886786360e-04  1.1346343412757575e-04  1.1377037818898767e-04  1.1407731102180538e-04  1.1438423259573611e-04  1.1469114288048811e-04  1.1499804184577085e-04  1.1530492946129484e-04  1.1561180569677168e-04  1.1591867052191421e-04  1.1622552390643624e-04  1.1653236582005284e-04  1.1683919623248019e-04  1.1714601511343552e-04  1.1745282243263733e-04  1.1775961815980516e-04  1.1806640226465970e-04  1.1837317471692281e-04  1.1867993548631754e-04  1.1898668454256803e-04  1.1929342185539961e-04  1.1960014739453876e-04  1.1990686112971307e-04  1.2021356303065141e-04  1.2052025306708376e-04  1.2082693120874121e-04  1.2113359742535611e-04  1.2144025168666195e-04  1.2174689396239341e-04  1.2205352422228635e-04  1.2236014243607776e-04  1.2266674857350595e-04  1.2297334260431025e-04  1.2327992449823137e-04  1.2358649422501106e-04  1.2389305175439239e-04  1.2419959705611957e-04  1.2450613009993799e-04  1.2481265085559435e-04  1.2511915929283644e-04  1.2542565538141336e-04  1.2573213909107542e-04  1.2603861039157404e-04  1.2634506925266205e-04  1.2665151564409335e-04  1.2695794953562317e-04  1.2726437089700796e-04  1.2757077969800532e-04  1.2787717590837414e-04  1.2818355949787460e-04  1.2848993043626807e-04  1.2879628869331720e-04  1.2910263423878584e-04  1.2940896704243920e-04  1.2971528707404360e-04  1.3002159430336671e-04  1.3032788870017748e-04  1.3063417023424613e-04  1.3094043887534410e-04  1.3124669459324404e-04  1.3155293735772009e-04  1.3185916713854748e-04  1.3216538390550274e-04  1.3247158762836375e-04  1.3277777827690960e-04  1.3308395582092080e-04  1.3339012023017905e-04  1.3369627147446732e-04  1.3400240952356998e-04  1.3430853434727262e-04  1.3461464591536221e-04  1.3492074419762688e-04  1.3522682916385626e-04  1.3553290078384116e-04  1.3583895902737379e-04  1.3614500386424766e-04  1.3645103526425752e-04  1.3675705319719957e-04  1.3706305763287123e-04  1.3736904854107140e-04  1.3767502589160012e-04  1.3798098965425886e-04  1.3828693979885055e-04  1.3859287629517929e-04  1.3889879911305056e-04  1.3920470822227128e-04  1.3951060359264963e-04  1.3981648519399524e-04  1.4012235299611895e-04  1.4042820696883308e-04  1.4073404708195126e-04  1.4103987330528852e-04  1.4134568560866131e-04  1.4165148396188732e-04  1.4195726833478582e-04  1.4226303869717719e-04  1.4256879501888342e-04  1.4287453726972773e-04  1.4318026541953487e-04  1.4348597943813091e-04  1.4379167929534325e-04  1.4409736496100086e-04  1.4440303640493392e-04  1.4470869359697416e-04  1.4501433650695466e-04  1.4531996510470981e-04  1.4562557936007560e-04  1.4593117924288922e-04  1.4623676472298952e-04  1.4654233577021661e-04  1.4684789235441210e-04  1.4715343444541895e-04  1.4745896201308155e-04  1.4776447502724583e-04  1.4806997345775906e-04  1.4837545727447001e-04  1.4868092644722890e-04  1.4898638094588729e-04  1.4929182074029831e-04  1.4959724580031642e-04  1.4990265609579769e-04  1.5020805159659951e-04  1.5051343227258075e-04  1.5081879809360186e-04  1.5112414902952457e-04  1.5142948505021228e-04  1.5173480612552963e-04  1.5204011222534302e-04  1.5234540331952013e-04  1.5265067937793008e-04  1.5295594037044365e-04  1.5326118626693292e-04  1.5356641703727163e-04  1.5387163265133497e-04  1.5417683307899951e-04  1.5448201829014346e-04  1.5478718825464644e-04  1.5509234294238961e-04  1.5539748232325568e-04  1.5570260636712876e-04  1.5600771504389459e-04  1.5631280832344039e-04  1.5661788617565484e-04  1.5692294857042819e-04  1.5722799547765226e-04  1.5753302686722032e-04  1.5783804270902717e-04  1.5814304297296925e-04  1.5844802762894440e-04  1.5875299664685211e-04  1.5905794999659343e-04  1.5936288764807074e-04  1.5966780957118825e-04  1.5997271573585151e-04  1.6027760611196778e-04  1.6058248066944580e-04  1.6088733937819587e-04  1.6119218220812985e-04  1.6149700912916119e-04  1.6180182011120490e-04  1.6210661512417758e-04  1.6241139413799739e-04  1.6271615712258407e-04  1.6302090404785892e-04  1.6332563488374491e-04  1.6363034960016645e-04  1.6393504816704968e-04  1.6423973055432228e-04  1.6454439673191352e-04  1.6484904666975428e-04  1.6515368033777705e-04  1.6545829770591588e-04  1.6576289874410647e-04  1.6606748342228614e-04  1.6637205171039383e-04  1.6667660357837005e-04  1.6698113899615697e-04  1.6728565793369831e-04  1.6759016036093960e-04  1.6789464624782782e-04  1.6819911556431160e-04  1.6850356828034126e-04  1.6880800436586872e-04  1.6911242379084762e-04  1.6941682652523316e-04  1.6972121253898225e-04  1.7002558180205334e-04  1.7032993428440661e-04  1.7063426995600394e-04  1.7093858878680890e-04  1.7124289074678652e-04  1.7154717580590377e-04  1.7185144393412895e-04  1.7215569510143237e-04  1.7245992927778574e-04  1.7276414643316269e-04  1.7306834653753837e-04  1.7337252956088964e-04  1.7367669547319506e-04  1.7398084424443484e-04  1.7428497584459092e-04  1.7458909024364703e-04  1.7489318741158839e-04  1.7519726731840204e-04  1.7550132993407675e-04  1.7580537522860298e-04  1.7610940317197281e-04  1.7641341373418016e-04  1.7671740688522062e-04  1.7702138259509143e-04  1.7732534083379168e-04  1.7762928157132201e-04  1.7793320477768501e-04  1.7823711042288490e-04  1.7854099847692748e-04  1.7884486890982053e-04  1.7914872169157338e-04  1.7945255679219720e-04  1.7975637418170498e-04  1.8006017383011123e-04  1.8036395570743239e-04  1.8066771978368656e-04  1.8097146602889371e-04  1.8127519441307543e-04  1.8157890490625524e-04  1.8188259747845833e-04  1.8218627209971161e-04  1.8248992874004381e-04  1.8279356736948540e-04  1.8309718795806875e-04  1.8340079047582793e-04  1.8370437489279875e-04  1.8400794117901884e-04  1.8431148930452763e-04  1.8461501923936632e-04  1.8491853095357793e-04  1.8522202441720732e-04  1.8552549960030104e-04  1.8582895647290755e-04  1.8613239500507705e-04  1.8643581516686154e-04  1.8673921692831491e-04  1.8704260025949280e-04  1.8734596513045269e-04  1.8764931151125390e-04  1.8795263937195752e-04  1.8825594868262651e-04  1.8855923941332571e-04  1.8886251153412168e-04  1.8916576501508287e-04  1.8946899982627959e-04  1.8977221593778401e-04  1.9007541331967002e-04  1.9037859194201353e-04  1.9068175177489223e-04  1.9098489278838559e-04  1.9128801495257511e-04  1.9159111823754393e-04  1.9189420261337726e-04  1.9219726805016208e-04  1.9250031451798722e-04  1.9280334198694334e-04  1.9310635042712315e-04  1.9340933980862112e-04  1.9371231010153358e-04  1.9401526127595873e-04  1.9431819330199669e-04  1.9462110614974955e-04  1.9492399978932121e-04  1.9522687419081745e-04  1.9552972932434601e-04  1.9583256516001645e-04  1.9613538166794031e-04  1.9643817881823103e-04  1.9674095658100393e-04  1.9704371492637615e-04  1.9734645382446701e-04  1.9764917324539746e-04  1.9795187315929053e-04  1.9825455353627116e-04  1.9855721434646612e-04  1.9885985556000426e-04  1.9916247714701636e-04  1.9946507907763500e-04  1.9976766132199481e-04  2.0007022385023227e-04  2.0037276663248597e-04  2.0067528963889627e-04  2.0097779283960554e-04  2.0128027620475815e-04  2.0158273970450038e-04  2.0188518330898055e-04  2.0218760698834885e-04  2.0249001071275744e-04  2.0279239445236051e-04  2.0309475817731411e-04  2.0339710185777649e-04  2.0369942546390762e-04  2.0400172896586959e-04  2.0430401233382638e-04  2.0460627553794405e-04  2.0490851854839065e-04  2.0521074133533621e-04  2.0551294386895273e-04  2.0581512611941421e-04  2.0611728805689661e-04  2.0641942965157807e-04  2.0672155087363858e-04  2.0702365169326015e-04  2.0732573208062676e-04  2.0762779200592463e-04  2.0792983143934173e-04  2.0823185035106820e-04  2.0853384871129618e-04  2.0883582649021978e-04  2.0913778365803527e-04  2.0943972018494088e-04  2.0974163604113683e-04  2.1004353119682549e-04  2.1034540562221108e-04  2.1064725928750009e-04  2.1094909216290092e-04  2.1125090421862409e-04  2.1155269542488212e-04  2.1185446575188965e-04  2.1215621516986334e-04  2.1245794364902189e-04  2.1275965115958616e-04  2.1306133767177892e-04  2.1336300315582507e-04  2.1366464758195173e-04  2.1396627092038796e-04  2.1426787314136493e-04  2.1456945421511594e-04  2.1487101411187616e-04  2.1517255280188325e-04  2.1547407025537661e-04  2.1577556644259788e-04  2.1607704133379070e-04  2.1637849489920100e-04  2.1667992710907666e-04  2.1698133793366777e-04  2.1728272734322646e-04  2.1758409530800698e-04  2.1788544179826566e-04  2.1818676678426102e-04  2.1848807023625369e-04  2.1878935212450641e-04  2.1909061241928395e-04  2.1939185109085349e-04  2.1969306810948409e-04  2.1999426344544696e-04  2.2029543706901552e-04  2.2059658895046531e-04  2.2089771906007416e-04  2.2119882736812177e-04  2.2149991384489022e-04  2.2180097846066362e-04  2.2210202118572826e-04  2.2240304199037275e-04  2.2270404084488767e-04  2.2300501771956575e-04  2.2330597258470196e-04  2.2360690541059348e-04  2.2390781616753961e-04  2.2420870482584186e-04  2.2450957135580388e-04  2.2481041572773155e-04  2.2511123791193295e-04  2.2541203787871834e-04  2.2571281559840013e-04  2.2601357104129287e-04  2.2631430417771346e-04  2.2661501497798088e-04  2.2691570341241640e-04  2.2721636945134343e-04  2.2751701306508761e-04  2.2781763422397681e-04  2.2811823289834116e-04  2.2841880905851287e-04  2.2871936267482651e-04  2.2901989371761875e-04  2.2932040215722856e-04  2.2962088796399724e-04  2.2992135110826817e-04  2.3022179156038702e-04  2.3052220929070167e-04  2.3082260426956228e-04  2.3112297646732128e-04  2.3142332585433331e-04  2.3172365240095523e-04  2.3202395607754622e-04  2.3232423685446761e-04  2.3262449470208319e-04  2.3292472959075884e-04  2.3322494149086279e-04  2.3352513037276545e-04  2.3382529620683955e-04  2.3412543896346021e-04  2.3442555861300467e-04  2.3472565512585244e-04  2.3502572847238537e-04  2.3532577862298774e-04  2.3562580554804585e-04  2.3592580921794843e-04  2.3622578960308648e-04  2.3652574667385330e-04  2.3682568040064457e-04  2.3712559075385816e-04  2.3742547770389433e-04  2.3772534122115557e-04  2.3802518127604674e-04  2.3832499783897509e-04  2.3862479088035000e-04  2.3892456037058330e-04  2.3922430628008914e-04  2.3952402857928390e-04  2.3982372723858650e-04  2.4012340222841794e-04  2.4042305351920171e-04  2.4072268108136358e-04  2.4102228488533163e-04  2.4132186490153642e-04  2.4162142110041075e-04  2.4192095345238975e-04  2.4222046192791098e-04  2.4251994649741434e-04  2.4281940713134206e-04  2.4311884380013885e-04  2.4341825647425161e-04  2.4371764512412961e-04  2.4401700972022473e-04  2.4431635023299095e-04  2.4461566663288469e-04  2.4491495889036484e-04  2.4521422697589262e-04  2.4551347085993171e-04  2.4581269051294802e-04  2.4611188590540999e-04  2.4641105700778828e-04  2.4671020379055618e-04  2.4700932622418928e-04  2.4730842427916552e-04  2.4760749792596522e-04  2.4790654713507124e-04  2.4820557187696878e-04  2.4850457212214559e-04  2.4880354784109163e-04  2.4910249900429927e-04  2.4940142558226345e-04  2.4970032754548151e-04  2.4999920486445319e-04  2.5029805750968070e-04  2.5059688545166859e-04  2.5089568866092397e-04  2.5119446710795615e-04  2.5149322076327727e-04  2.5179194959740165e-04  2.5209065358084603e-04  2.5238933268412976e-04  2.5268798687777452e-04  2.5298661613230465e-04  2.5328522041824665e