<?xml version="1.0"?>
<VTKFile type="UnstructuredGrid"  version="0.1"  >
<UnstructuredGrid>
<Piece  NumberOfPoints="20001" NumberOfCells="20000">
<Points>
<DataArray  type="Float64"  NumberOfComponents="3"  format="ascii">0 0 0  5e-05 0 0  0.0001 0 0  0.00015 0 0  0.0002 0 0  0.00025 0 0  0.0003 0 0  0.00035 0 0  0.0004 0 0  0.00045 0 0  0.0005 0 0  0.00055 0 0  0.0005999999999999999 0 0  0.00065 0 0  0.0007 0 0  0.00075 0 0  0.0008 0 0  0.00085 0 0  0.0009 0 0  0.00095 0 0  0.001 0 0  0.00105 0 0  0.0011 0 0  0.00115 0 0  0.0012 0 0  0.00125 0 0  0.0013 0 0  0.00135 0 0  0.0014 0 0  0.00145 0 0  0.0015 0 0  0.00155 0 0  0.0016 0 0  0.00165 0 0  0.0017 0 0  0.00175 0 0  0.0018 0 0  0.00185 0 0  0.0019 0 0  0.00195 0 0  0.002 0 0  0.00205 0 0  0.0021 0 0  0.00215 0 0  0.0022 0 0  0.00225 0 0  0.0023 0 0  0.00235 0 0  0.0024 0 0  0.00245 0 0  0.0025 0 0  0.00255 0 0  0.0026 0 0  0.00265 0 0  0.0027 0 0  0.00275 0 0  0.0028 0 0  0.00285 0 0  0.0029 0 0  0.00295 0 0  0.003 0 0  0.00305 0 0  0.0031 0 0  0.00315 0 0  0.0032 0 0  0.00325 0 0  0.0033 0 0  0.00335 0 0  0.0034 0 0  0.00345 0 0  0.0035 0 0  0.00355 0 0  0.0036 0 0  0.00365 0 0  0.0037 0 0  0.00375 0 0  0.0038 0 0  0.00385 0 0  0.0039 0 0  0.00395 0 0  0.004 0 0  0.00405 0 0  0.0041 0 0  0.00415 0 0  0.0042 0 0  0.00425 0 0  0.0043 0 0  0.00435 0 0  0.0044 0 0  0.00445 0 0  0.0045 0 0  0.00455 0 0  0.0046 0 0  0.00465 0 0  0.0047 0 0  0.00475 0 0  0.0048 0 0  0.00485 0 0  0.0049 0 0  0.00495 0 0  0.005 0 0  0.00505 0 0  0.0051 0 0  0.00515 0 0  0.0052 0 0  0.00525 0 0  0.0053 0 0  0.00535 0 0  0.0054 0 0  0.00545 0 0  0.0055 0 0  0.00555 0 0  0.0056 0 0  0.00565 0 0  0.0057 0 0  0.00575 0 0  0.0058 0 0  0.00585 0 0  0.0059 0 0  0.00595 0 0  0.006 0 0  0.00605 0 0  0.0061 0 0  0.00615 0 0  0.0062 0 0  0.00625 0 0  0.0063 0 0  0.00635 0 0  0.0064 0 0  0.00645 0 0  0.0065 0 0  0.00655 0 0  0.0066 0 0  0.00665 0 0  0.0067 0 0  0.00675 0 0  0.0068 0 0  0.00685 0 0  0.0069 0 0  0.00695 0 0  0.007 0 0  0.00705 0 0  0.0071 0 0  0.00715 0 0  0.0072 0 0  0.00725 0 0  0.0073 0 0  0.00735 0 0  0.0074 0 0  0.00745 0 0  0.0075 0 0  0.00755 0 0  0.0076 0 0  0.00765 0 0  0.0077 0 0  0.00775 0 0  0.0078 0 0  0.007849999999999999 0 0  0.007900000000000001 0 0  0.00795 0 0  0.008 0 0  0.00805 0 0  0.0081 0 0  0.008149999999999999 0 0  0.008200000000000001 0 0  0.00825 0 0  0.0083 0 0  0.00835 0 0  0.008399999999999999 0 0  0.008449999999999999 0 0  0.008500000000000001 0 0  0.00855 0 0  0.0086 0 0  0.00865 0 0  0.008699999999999999 0 0  0.008750000000000001 0 0  0.008800000000000001 0 0  0.00885 0 0  0.0089 0 0  0.00895 0 0  0.008999999999999999 0 0  0.009050000000000001 0 0  0.0091 0 0  0.00915 0 0  0.0092 0 0  0.00925 0 0  0.009299999999999999 0 0  0.009350000000000001 0 0  0.0094 0 0  0.00945 0 0  0.0095 0 0  0.009549999999999999 0 0  0.009599999999999999 0 0  0.009650000000000001 0 0  0.0097 0 0  0.00975 0 0  0.0098 0 0  0.009849999999999999 0 0  0.009900000000000001 0 0  0.009950000000000001 0 0  0.01 0 0  0.01005 0 0  0.0101 0 0  0.01015 0 0  0.0102 0 0  0.01025 0 0  0.0103 0 0  0.01035 0 0  0.0104 0 0  0.01045 0 0  0.0105 0 0  0.01055 0 0  0.0106 0 0  0.01065 0 0  0.0107 0 0  0.01075 0 0  0.0108 0 0  0.01085 0 0  0.0109 0 0  0.01095 0 0  0.011 0 0  0.01105 0 0  0.0111 0 0  0.01115 0 0  0.0112 0 0  0.01125 0 0  0.0113 0 0  0.01135 0 0  0.0114 0 0  0.01145 0 0  0.0115 0 0  0.01155 0 0  0.0116 0 0  0.01165 0 0  0.0117 0 0  0.01175 0 0  0.0118 0 0  0.01185 0 0  0.0119 0 0  0.01195 0 0  0.012 0 0  0.01205 0 0  0.0121 0 0  0.01215 0 0  0.0122 0 0  0.01225 0 0  0.0123 0 0  0.01235 0 0  0.0124 0 0  0.01245 0 0  0.0125 0 0  0.01255 0 0  0.0126 0 0  0.01265 0 0  0.0127 0 0  0.01275 0 0  0.0128 0 0  0.01285 0 0  0.0129 0 0  0.01295 0 0  0.013 0 0  0.01305 0 0  0.0131 0 0  0.01315 0 0  0.0132 0 0  0.01325 0 0  0.0133 0 0  0.01335 0 0  0.0134 0 0  0.01345 0 0  0.0135 0 0  0.01355 0 0  0.0136 0 0  0.01365 0 0  0.0137 0 0  0.01375 0 0  0.0138 0 0  0.01385 0 0  0.0139 0 0  0.01395 0 0  0.014 0 0  0.01405 0 0  0.0141 0 0  0.01415 0 0  0.0142 0 0  0.01425 0 0  0.0143 0 0  0.01435 0 0  0.0144 0 0  0.01445 0 0  0.0145 0 0  0.01455 0 0  0.0146 0 0  0.01465 0 0  0.0147 0 0  0.01475 0 0  0.0148 0 0  0.01485 0 0  0.0149 0 0  0.01495 0 0  0.015 0 0  0.01505 0 0  0.0151 0 0  0.01515 0 0  0.0152 0 0  0.01525 0 0  0.0153 0 0  0.01535 0 0  0.0154 0 0  0.01545 0 0  0.0155 0 0  0.01555 0 0  0.0156 0 0  0.01565 0 0  0.0157 0 0  0.01575 0 0  0.0158 0 0  0.01585 0 0  0.0159 0 0  0.01595 0 0  0.016 0 0  0.01605 0 0  0.0161 0 0  0.01615 0 0  0.0162 0 0  0.01625 0 0  0.0163 0 0  0.01635 0 0  0.0164 0 0  0.01645 0 0  0.0165 0 0  0.01655 0 0  0.0166 0 0  0.01665 0 0  0.0167 0 0  0.01675 0 0  0.0168 0 0  0.01685 0 0  0.0169 0 0  0.01695 0 0  0.017 0 0  0.01705 0 0  0.0171 0 0  0.01715 0 0  0.0172 0 0  0.01725 0 0  0.0173 0 0  0.01735 0 0  0.0174 0 0  0.01745 0 0  0.0175 0 0  0.01755 0 0  0.0176 0 0  0.01765 0 0  0.0177 0 0  0.01775 0 0  0.0178 0 0  0.01785 0 0  0.0179 0 0  0.01795 0 0  0.018 0 0  0.01805 0 0  0.0181 0 0  0.01815 0 0  0.0182 0 0  0.01825 0 0  0.0183 0 0  0.01835 0 0  0.0184 0 0  0.01845 0 0  0.0185 0 0  0.01855 0 0  0.0186 0 0  0.01865 0 0  0.0187 0 0  0.01875 0 0  0.0188 0 0  0.01885 0 0  0.0189 0 0  0.01895 0 0  0.019 0 0  0.01905 0 0  0.0191 0 0  0.01915 0 0  0.0192 0 0  0.01925 0 0  0.0193 0 0  0.01935 0 0  0.0194 0 0  0.01945 0 0  0.0195 0 0  0.01955 0 0  0.0196 0 0  0.01965 0 0  0.0197 0 0  0.01975 0 0  0.0198 0 0  0.01985 0 0  0.0199 0 0  0.01995 0 0  0.02 0 0  0.02005 0 0  0.0201 0 0  0.02015 0 0  0.0202 0 0  0.02025 0 0  0.0203 0 0  0.02035 0 0  0.0204 0 0  0.02045 0 0  0.0205 0 0  0.02055 0 0  0.0206 0 0  0.02065 0 0  0.0207 0 0  0.02075 0 0  0.0208 0 0  0.02085 0 0  0.0209 0 0  0.02095 0 0  0.021 0 0  0.02105 0 0  0.0211 0 0  0.02115 0 0  0.0212 0 0  0.02125 0 0  0.0213 0 0  0.02135 0 0  0.0214 0 0  0.02145 0 0  0.0215 0 0  0.02155 0 0  0.0216 0 0  0.02165 0 0  0.0217 0 0  0.02175 0 0  0.0218 0 0  0.02185 0 0  0.0219 0 0  0.02195 0 0  0.022 0 0  0.02205 0 0  0.0221 0 0  0.02215 0 0  0.0222 0 0  0.02225 0 0  0.0223 0 0  0.02235 0 0  0.0224 0 0  0.02245 0 0  0.0225 0 0  0.02255 0 0  0.0226 0 0  0.02265 0 0  0.0227 0 0  0.02275 0 0  0.0228 0 0  0.02285 0 0  0.0229 0 0  0.02295 0 0  0.023 0 0  0.02305 0 0  0.0231 0 0  0.02315 0 0  0.0232 0 0  0.02325 0 0  0.0233 0 0  0.02335 0 0  0.0234 0 0  0.02345 0 0  0.0235 0 0  0.02355 0 0  0.0236 0 0  0.02365 0 0  0.0237 0 0  0.02375 0 0  0.0238 0 0  0.02385 0 0  0.0239 0 0  0.02395 0 0  0.024 0 0  0.02405 0 0  0.0241 0 0  0.02415 0 0  0.0242 0 0  0.02425 0 0  0.0243 0 0  0.02435 0 0  0.0244 0 0  0.02445 0 0  0.0245 0 0  0.02455 0 0  0.0246 0 0  0.02465 0 0  0.0247 0 0  0.02475 0 0  0.0248 0 0  0.02485 0 0  0.0249 0 0  0.02495 0 0  0.025 0 0  0.02505 0 0  0.0251 0 0  0.02515 0 0  0.0252 0 0  0.02525 0 0  0.0253 0 0  0.02535 0 0  0.0254 0 0  0.02545 0 0  0.0255 0 0  0.02555 0 0  0.0256 0 0  0.02565 0 0  0.0257 0 0  0.02575 0 0  0.0258 0 0  0.02585 0 0  0.0259 0 0  0.02595 0 0  0.026 0 0  0.02605 0 0  0.0261 0 0  0.02615 0 0  0.0262 0 0  0.02625 0 0  0.0263 0 0  0.02635 0 0  0.0264 0 0  0.02645 0 0  0.0265 0 0  0.02655 0 0  0.0266 0 0  0.02665 0 0  0.0267 0 0  0.02675 0 0  0.0268 0 0  0.02685 0 0  0.0269 0 0  0.02695 0 0  0.027 0 0  0.02705 0 0  0.0271 0 0  0.02715 0 0  0.0272 0 0  0.02725 0 0  0.0273 0 0  0.02735 0 0  0.0274 0 0  0.02745 0 0  0.0275 0 0  0.02755 0 0  0.0276 0 0  0.02765 0 0  0.0277 0 0  0.02775 0 0  0.0278 0 0  0.02785 0 0  0.0279 0 0  0.02795 0 0  0.028 0 0  0.02805 0 0  0.0281 0 0  0.02815 0 0  0.0282 0 0  0.02825 0 0  0.0283 0 0  0.02835 0 0  0.0284 0 0  0.02845 0 0  0.0285 0 0  0.02855 0 0  0.0286 0 0  0.02865 0 0  0.0287 0 0  0.02875 0 0  0.0288 0 0  0.02885 0 0  0.0289 0 0  0.02895 0 0  0.029 0 0  0.02905 0 0  0.0291 0 0  0.02915 0 0  0.0292 0 0  0.02925 0 0  0.0293 0 0  0.02935 0 0  0.0294 0 0  0.02945 0 0  0.0295 0 0  0.02955 0 0  0.0296 0 0  0.02965 0 0  0.0297 0 0  0.02975 0 0  0.0298 0 0  0.02985 0 0  0.0299 0 0  0.02995 0 0  0.03 0 0  0.03005 0 0  0.0301 0 0  0.03015 0 0  0.0302 0 0  0.03025 0 0  0.0303 0 0  0.03035 0 0  0.0304 0 0  0.03045 0 0  0.0305 0 0  0.03055 0 0  0.0306 0 0  0.03065 0 0  0.0307 0 0  0.03075 0 0  0.0308 0 0  0.03085 0 0  0.0309 0 0  0.03095 0 0  0.031 0 0  0.03105 0 0  0.0311 0 0  0.03115 0 0  0.0312 0 0  0.03125 0 0  0.0313 0 0  0.03135 0 0  0.0314 0 0  0.03145 0 0  0.0315 0 0  0.03155 0 0  0.0316 0 0  0.03165 0 0  0.0317 0 0  0.03175 0 0  0.0318 0 0  0.03185 0 0  0.0319 0 0  0.03195 0 0  0.032 0 0  0.03205 0 0  0.0321 0 0  0.03215 0 0  0.0322 0 0  0.03225 0 0  0.0323 0 0  0.03235 0 0  0.0324 0 0  0.03245 0 0  0.0325 0 0  0.03255 0 0  0.0326 0 0  0.03265 0 0  0.0327 0 0  0.03275 0 0  0.0328 0 0  0.03285 0 0  0.0329 0 0  0.03295 0 0  0.033 0 0  0.03305 0 0  0.0331 0 0  0.03315 0 0  0.0332 0 0  0.03325 0 0  0.0333 0 0  0.03335 0 0  0.0334 0 0  0.03345 0 0  0.0335 0 0  0.03355 0 0  0.0336 0 0  0.03365 0 0  0.0337 0 0  0.03375 0 0  0.0338 0 0  0.03385 0 0  0.0339 0 0  0.03395 0 0  0.034 0 0  0.03405 0 0  0.0341 0 0  0.03415 0 0  0.0342 0 0  0.03425 0 0  0.0343 0 0  0.03435 0 0  0.0344 0 0  0.03445 0 0  0.0345 0 0  0.03455 0 0  0.0346 0 0  0.03465 0 0  0.0347 0 0  0.03475 0 0  0.0348 0 0  0.03485 0 0  0.0349 0 0  0.03495 0 0  0.035 0 0  0.03505 0 0  0.0351 0 0  0.03515 0 0  0.0352 0 0  0.03525 0 0  0.0353 0 0  0.03535 0 0  0.0354 0 0  0.03545 0 0  0.0355 0 0  0.03555 0 0  0.0356 0 0  0.03565 0 0  0.0357 0 0  0.03575 0 0  0.0358 0 0  0.03585 0 0  0.0359 0 0  0.03595 0 0  0.036 0 0  0.03605 0 0  0.0361 0 0  0.03615 0 0  0.0362 0 0  0.03625 0 0  0.0363 0 0  0.03635 0 0  0.0364 0 0  0.03645 0 0  0.0365 0 0  0.03655 0 0  0.0366 0 0  0.03665 0 0  0.0367 0 0  0.03675 0 0  0.0368 0 0  0.03685 0 0  0.0369 0 0  0.03695 0 0  0.037 0 0  0.03705 0 0  0.0371 0 0  0.03715 0 0  0.0372 0 0  0.03725 0 0  0.0373 0 0  0.03735 0 0  0.0374 0 0  0.03745 0 0  0.0375 0 0  0.03755 0 0  0.0376 0 0  0.03765 0 0  0.0377 0 0  0.03775 0 0  0.0378 0 0  0.03785 0 0  0.0379 0 0  0.03795 0 0  0.038 0 0  0.03805 0 0  0.0381 0 0  0.0
[...]
<PointData  Scalars="f_13"> 
<DataArray  type="Float64"  Name="f_13"  format="ascii">1.7552761141939162e+178  7.4982918276946230e+173  3.2439126595229109e+173  1.9164877874737879e+173  1.2917570455062847e+173  9.3770871605936331e+172  7.1418685072100145e+172  5.6267114528083482e+172  4.5463726996823756e+172  3.7463000399647980e+172  3.1360216780154094e+172  2.6593505357432761e+172  2.2797204963477711e+172  1.9724133766839090e+172  1.7201857411997951e+172  1.5106852037102176e+172  1.3348602151430592e+172  1.1859466925815213e+172  1.0588026238667359e+172  9.4945962939339168e+171  8.5481374596245956e+171  7.7240784501835787e+171  7.0027573711708650e+171  6.3682864652917925e+171  5.8077132011349487e+171  5.3103920499450855e+171  4.8675082992771179e+171  4.4717130805563894e+171  4.1168407684909843e+171  3.7976880934025278e+171  3.5098399806683909e+171  3.2495311189357162e+171  3.0135350973178948e+171  2.7990749964534789e+171  2.6037508073961948e+171  2.4254801479486468e+171  2.2624495599708775e+171  2.1130742812855507e+171  1.9759648469832362e+171  1.8498992263286650e+171  1.7337994712280323e+171  1.6267120607741219e+171  1.5277912887078741e+171  1.4362851677746752e+171  1.3515234251370972e+171  1.2729072424003947e+171  1.1999004570694890e+171  1.1320219929257672e+171  1.0688393275962516e+171  1.0099628385701898e+171  9.5504089571158510e+170  9.0375559017597814e+170  8.5581900754805160e+170  8.1096996774577645e+170  7.6897116639726869e+170  7.2960666247284366e+170  6.9267966533341745e+170  6.5801058134691823e+170  6.2543528607560995e+170  5.9480359295021748e+170  5.6597789348431218e+170  5.3883194757707497e+170  5.1324980541248677e+170  4.8912484497679304e+170  4.6635891135660015e+170  4.4486154580717191e+170  4.2454929414415051e+170  4.0534508535314568e+170  3.8717767246473117e+170  3.6998112873595070e+170  3.5369439303735275e+170  3.3826085908694100e+170  3.2362800381610041e+170  3.0974705071174043e+170  2.9657266446563847e+170  2.8406267368639610e+170  2.7217781880023011e+170  2.6088152259131114e+170  2.5013968111683032e+170  2.3992047298176127e+170  2.3019418517797245e+170  2.2093305388586263e+170  2.1211111880743679e+170  2.0370408975058121e+170  1.9568922431778759e+170  1.8804521567085255e+170  1.8075208944803694e+170  1.7379110900342025e+170  1.6714468822116211e+170  1.6079631123129310e+170  1.5473045841959053e+170  1.4893253818297590e+170  1.4338882393451847e+170  1.3808639590925996e+170  1.3301308736431919e+170  1.2815743480463030e+170  1.2350863189971251e+170  1.1905648678748111e+170  1.1479138248866083e+170  1.1070424018018882e+170  1.0678648509839368e+170  1.0303001486294791e+170  9.9427170030868037e+169  9.5970706706364676e+169  9.2653771047307920e+169  8.9469875522639987e+169  8.6412876787366951e+169  8.3476955052929044e+169  8.0656594840901766e+169  7.7946567017204952e+169  7.5341912012397847e+169  7.2837924141291549e+169  7.0430136942083869e+169  6.8114309461584554e+169  6.5886413418911686e+169  6.3742621185347156e+169  6.1679294522894102e+169  5.9692974028521300e+169  5.7780369235148943e+169  5.5938349324154874e+169  5.4163934407601633e+169  5.2454287341518864e+169  5.0806706034457747e+169  4.9218616218178830e+169  4.7687564649768047e+169  4.6211212716715309e+169  4.4787330418549361e+169  4.3413790700521123e+169  4.2088564116577981e+169  4.0809713800483986e+169  3.9575390725430192e+169  3.8383829233854655e+169  3.7233342820461092e+169  3.6122320152598787e+169  3.5049221313253208e+169  3.4012574252900709e+169  3.3010971437411020e+169  3.2043066680043075e+169  3.1107572146378492e+169  3.0203255521777094e+169  2.9328937331626697e+169  2.8483488405296687e+169  2.7665827475296900e+169  2.6874918903694578e+169  2.6109770528352357e+169  2.5369431622027482e+169  2.4652990957813621e+169  2.3959574974819504e+169  2.3288346038362325e+169  2.2638500789310801e+169  2.2009268577546195e+169  2.1399909974820701e+169  2.0809715362581640e+169  2.0238003590601181e+169  1.9684120702503395e+169  1.9147438724516313e+169  1.8627354513997153e+169  1.8123288664485443e+169  1.7634684464230254e+169  1.7161006905319274e+169  1.6701741740705148e+169  1.6256394586583146e+169  1.5824490067721640e+169  1.5405571003485775e+169  1.4999197632424355e+169  1.4604946873411877e+169  1.4222411621451782e+169  1.3851200076354283e+169  1.3490935102602536e+169  1.3141253618815480e+169  1.2801806015304268e+169  1.2472255598302607e+169  1.2152278059529571e+169  1.1841560969817189e+169  1.1539803295604182e+169  1.1246714937162531e+169  1.0962016287484777e+169  1.0685437810817494e+169  1.0416719639881097e+169  1.0155611190866898e+169  9.9018707953507938e+168  9.6552653483083711e+168  9.4155699714590415e+168  9.1825676912070371e+168  8.9560491304855654e+168  8.7358122138460674e+168  8.5216618851686626e+168  8.3134098374016900e+168  8.1108742537688187e+168  7.9138795599103409e+168  7.7222561864527753e+168  7.5358403415260739e+168  7.3544737927719127e+168  7.1780036584094446e+168  7.0062822069464907e+168  6.8391666651443529e+168  6.6765190338640806e+168  6.5182059114400535e+168  6.3640983242440613e+168  6.2140715641197053e+168  6.0680050323821181e+168  5.9257820900930935e+168  5.7872899143353807e+168  5.6524193602231941e+168  5.5210648283986467e+168  5.3931241377755434e+168  5.2684984033033369e+168  5.1470919185347443e+168  5.0288120427906412e+168  4.9135690927255488e+168  4.8012762381060871e+168  4.6918494016236125e+168  4.5852071625703181e+168  4.4812706642161336e+168  4.3799635247310154e+168  4.2812117515044384e+168  4.1849436587205908e+168  4.0910897880541566e+168  3.9995828323576970e+168  3.9103575622174260e+168  3.8233507552596858e+168  3.7385011280956523e+168  3.6557492707968432e+168  3.5750375837986814e+168  3.4963102171339705e+168  3.4195130119024207e+168  3.3445934438864321e+168  3.2715005692273211e+168  3.2001849720798398e+168  3.1305987141664241e+168  3.0626952861560165e+168  2.9964295607954817e+168  2.9317577477247347e+168  2.8686373499096861e+168  2.8070271216298245e+168  2.7468870279599947e+168  2.6881782056884692e+168  2.6308629256158036e+168  2.5749045561813784e+168  2.5202675283666342e+168  2.4669173018262068e+168  2.4148203322001958e+168  2.3639440395626848e+168  2.3142567779634899e+168  2.2657278060219299e+168  2.2183272585330218e+168  2.1720261190481741e+168  2.1267961933939673e+168  2.0826100840940956e+168  2.0394411656609310e+168  1.9972635607245542e+168  1.9560521169683703e+168  1.9157823848416310e+168  1.8764305960204241e+168  1.8379736425897769e+168  1.8003890569206103e+168  1.7636549922163346e+168  1.7277502037048482e+168  1.6926540304526419e+168  1.6583463777786681e+168  1.6248077002464521e+168  1.5920189852137779e+168  1.5599617369200872e+168  1.5286179610924823e+168  1.4979701500519805e+168  1.4680012683023445e+168  1.4386947385844997e+168  1.4100344283802034e+168  1.3820046368492426e+168  1.3545900821850294e+168  1.3277758893740514e+168  1.3015475783451601e+168  1.2758910524952210e+168  1.2507925875781313e+168  1.2262388209447447e+168  1.2022167411216408e+168  1.1787136777171759e+168  1.1557172916436486e+168  1.1332155656448449e+168  1.1111967951186070e+168  1.0896495792244608e+168  1.0685628122666862e+168  1.0479256753435875e+168  1.0277276282540322e+168  1.0079584016526688e+168  9.8860798944553148e+167  9.6966664141803459e+167  9.5112485608768747e+167  9.3297337377406163e+167  9.1520316987887886e+167  8.9780544836930226e+167  8.8077163545777283e+167  8.6409337347196087e+167  8.4776251490864385e+167  8.3177111666552236e+167  8.1611143444520711e+167  8.0077591732580544e+167  7.8575720249274156e+167  7.7104811012661161e+167  7.5664163844208162e+167  7.4253095887297957e+167  7.2870941139892740e+167  7.1517050000900299e+167  7.0190788829807805e+167  6.8891539519163545e+167  6.7618699079500156e+167  6.6371679236308224e+167  6.5149906038680650e+167  6.3952819479262992e+167  6.2779873125154656e+167  6.1630533759421149e+167  6.0504281032886351e+167  5.9400607125886251e+167  5.8319016419675136e+167  5.7259025177187212e+167  5.6220161232864453e+167  5.5201963691273345e+167  5.4203982634239904e+167  5.3225778836243363e+167  5.2266923487816813e+167  5.1326997926710106e+167  5.0405593376581170e+167  4.9502310692986144e+167  4.8616760116449132e+167  4.7748561032397546e+167  4.6897341737756853e+167  4.6062739214005612e+167  4.5244398906496493e+167  4.4441974509857472e+167  4.3655127759291265e+167  4.2883528227598083e+167  4.2126853127752753e+167  4.1384787120870927e+167  4.0657022129406537e+167  3.9943257155425525e+167  3.9243198103807617e+167  3.8556557610231737e+167  3.7883054873804849e+167  3.7222415494199434e+167  3.6574371313167634e+167  3.5938660260306312e+167  3.5315026202948681e+167  3.4703218800063940e+167  3.4102993360049882e+167  3.3514110702305004e+167  3.2936337022473374e+167  3.2369443761256104e+167  3.1813207476687793e+167  3.1267409719779441e+167  3.0731836913431485e+167  3.0206280234525090e+167  2.9690535499100714e+167  2.9184403050537314e+167  2.8687687650647780e+167  2.8200198373607978e+167  2.7721748502640501e+167  2.7252155429375234e+167  2.6791240555812954e+167  2.6338829198818447e+167  2.5894750497073043e+167  2.5458837320418793e+167  2.5030926181527224e+167  2.4610857149829020e+167  2.4198473767641875e+167  2.3793622968436320e+167  2.3396154997180619e+167  2.3005923332707475e+167  2.2622784612048022e+167  2.2246598556678575e+167  2.1877227900628277e+167  2.1514538320397495e+167  2.1158398366637190e+167  2.0808679397542008e+167  2.0465255513910500e+167  2.0128003495828097e+167  1.9796802740928427e+167  1.9471535204190957e+167  1.9152085339234039e+167  1.8838340041062714e+167  1.8530188590233339e+167  1.8227522598396365e+167  1.7930235955181285e+167  1.7638224776388023e+167  1.7351387353449867e+167  1.7069624104134849e+167  1.6792837524452390e+167  1.6520932141733965e+167  1.6253814468856629e+167  1.5991392959579447e+167  1.5733577964964112e+167  1.5480281690850858e+167  1.5231418156362679e+167  1.4986903153410770e+167  1.4746654207175281e+167  1.4510590537536382e+167  1.4278633021430495e+167  1.4050704156108559e+167  1.3826728023272400e+167  1.3606630254066974e+167  1.3390337994906664e+167  1.3177779874113817e+167  1.2968885969349288e+167  1.2763587775814271e+167  1.2561818175204229e+167  1.2363511405395456e+167  1.2168603030845931e+167  1.1977029913692254e+167  1.1788730185524977e+167  1.1603643219825552e+167  1.1421709605047824e+167  1.1242871118328096e+167  1.1067070699808078e+167  1.0894252427555050e+167  1.0724361493064730e+167  1.0557344177331961e+167  1.0393147827475163e+167  1.0231720833900980e+167  1.0073012607995456e+167  9.9169735603288734e+166  9.7635550793613720e+166  9.6127095106372745e+166  9.4643901364557918e+166  9.3185511560065267e+166  9.1751476659583882e+166  9.0341356414907172e+166  8.8954719177559250e+166  8.7591141717630069e+166  8.6250209046717034e+166  8.4931514244873420e+166  8.3634658291465776e+166  8.2359249899846720e+166  8.1104905355748600e+166  7.9871248359310623e+166  7.8657909870650193e+166  7.7464527958893211e+166  7.6290747654581421e+166  7.5136220805374109e+166  7.4000605934966859e+166  7.2883568105148967e+166  7.1784778780925588e+166  7.0703915698631564e+166  6.9640662736964959e+166  6.8594709790871910e+166  6.7565752648214634e+166  6.6553492869156765e+166  6.5557637668202589e+166  6.4577899798825806e+166  6.3613997440629158e+166  6.2665654088973121e+166  6.1732598447018029e+166  6.0814564320120746e+166  5.9911290512532525e+166  5.9022520726344201e+166  5.8148003462624575e+166  5.7287491924703697e+166  5.6440743923548944e+166  5.5607521785185913e+166  5.4787592260118108e+166  5.3980726434696773e+166  5.3186699644398365e+166  5.2405291388963859e+166  5.1636285249357749e+166  5.0879468806505348e+166  5.0134633561766682e+166  4.9401574859107932e+166  4.8680091808931458e+166  4.7969987213526493e+166  4.7271067494103390e+166  4.6583142619375481e+166  4.5906026035653953e+166  4.5239534598420339e+166  4.4583488505344574e+166  4.3937711230714449e+166  4.3302029461245279e+166  4.2676273033239591e+166  4.2060274871064347e+166  4.1453870926918360e+166  4.0856900121859429e+166  4.0269204288063416e+166  3.9690628112288314e+166  3.9121019080515078e+166  3.8560227423740633e+166  3.8008106064895857e+166  3.7464510566864857e+166  3.6929299081580099e+166  3.6402332300170052e+166  3.5883473404136153e+166  3.5372588017535797e+166  3.4869544160150020e+166  3.4374212201613472e+166  3.3886464816485620e+166  3.3406176940243091e+166  3.2933225726171994e+166  3.2467490503141826e+166  3.2008852734240071e+166  3.1557195976250428e+166  3.1112405839954839e+166  3.0674369951242137e+166  3.0242977913005996e+166  2.9818121267814254e+166  2.9399693461333730e+166  2.8987589806493650e+166  2.8581707448371930e+166  2.8181945329788907e+166  2.7788204157592786e+166  2.7400386369622619e+166  2.7018396102333639e+166  2.6642139159070896e+166  2.6271522978977976e+166  2.5906456606526017e+166  2.5546850661650952e+166  2.5192617310485289e+166  2.4843670236671979e+166  2.4499924613248107e+166  2.4161297075086223e+166  2.3827705691881624e+166  2.3499069941673549e+166  2.3175310684889892e+166  2.2856350138903453e+166  2.2542111853089444e+166  2.2232520684373856e+166  2.1927502773261849e+166  2.1626985520336676e+166  2.1330897563218738e+166  2.1039168753975512e+166  2.0751730136972918e+166  2.0468513927158618e+166  2.0189453488768713e+166  1.9914483314448423e+166  1.9643539004778885e+166  1.9376557248201029e+166  1.9113475801328448e+166  1.8854233469641622e+166  1.8598770088554881e+166  1.8347026504849191e+166  1.8098944558462710e+166  1.7854467064631812e+166  1.7613537796375700e+166  1.7376101467317085e+166  1.7142103714832516e+166  1.6911491083525238e+166  1.6684211009014154e+166  1.6460211802032598e+166  1.6239442632830132e+166  1.6021853515871789e+166  1.5807395294828199e+166  1.5596019627851143e+166  1.5387678973128385e+166  1.5182326574712243e+166  1.4979916448616561e+166  1.4780403369176313e+166  1.4583742855664895e+166  1.4389891159163636e+166  1.4198805249678541e+166  1.4010442803499486e+166  1.3824762190796692e+166  1.3641722463450021e+166  1.3461283343106108e+166  1.3283405209459174e+166  1.3108049088750734e+166  1.2935176642483890e+166  1.2764750156348228e+166  1.2596732529350628e+166  1.2431087263148408e+166  1.2267778451580463e+166  1.2106770770392537e+166  1.1948029467152980e+166  1.1791520351354936e+166  1.1637209784701527e+166  1.1485064671570279e+166  1.1335052449653317e+166  1.1187141080769983e+166  1.1041299041848264e+166  1.0897495316071908e+166  1.0755699384189895e+166  1.0615881215985194e+166  1.0478011261899583e+166  1.0342060444811476e+166  1.0208000151963964e+166  1.0075802227039857e+166  9.9454389623811984e+165  9.8168830913501746e+165  9.6901077808288103e+165  9.5650866238547889e+165  9.4417936323906662e+165  9.3202032302240359e+165  9.2002902459959939e+165  9.0820299063554357e+165  8.9653978292369589e+165  8.8503700172597274e+165  8.7369228512451971e+165  8.6250330838511948e+165  8.5146778333204603e+165  8.4058345773411011e+165  8.2984811470170631e+165  8.1925957209464794e+165  8.0881568194056876e+165  7.9851432986371802e+165  7.8835343452392724e+165  7.7833094706556240e+165  7.6844485057628755e+165  7.5869315955542454e+165  7.4907391939175941e+165  7.3958520585058674e+165  7.3022512456984914e+165  7.2099181056517498e+165  7.1188342774365566e+165  7.0289816842620538e+165  6.9403425287832550e+165  6.8528992884913842e+165  6.7666347111851868e+165  6.6815318105216986e+165  6.5975738616451693e+165  6.5147443968924233e+165  6.4330272015734471e+165  6.3524063098256961e+165  6.2728660005407760e+165  6.1943907933621868e+165  6.1169654447527203e+165  6.0405749441303364e+165  5.9652045100711492e+165  5.8908395865783740e+165  5.8174658394159582e+165  5.7450691525056676e+165  5.6736356243865750e+165  5.6031515647357085e+165  5.5336034909487796e+165  5.4649781247798545e+165  5.3972623890389128e+165  5.3304434043461990e+165  5.2645084859424351e+165  5.1994451405537209e+165  5.1352410633102113e+165  5.0718841347176110e+165  5.0093624176804314e+165  4.9476641545762017e+165  4.8867777643795638e+165  4.8266918398354931e+165  4.7673951446805995e+165  4.7088766109117444e+165  4.6511253361011316e+165  4.5941305807569275e+165  4.5378817657287123e+165  4.4823684696568122e+165  4.4275804264649359e+165  4.3735075228950580e+165  4.3201397960840495e+165  4.2674674311811535e+165  4.2154807590055775e+165  4.1641702537436141e+165  4.1135265306844021e+165  4.0635403439937740e+165  4.0142025845254581e+165  3.9655042776689390e+165  3.9174365812334297e+165  3.8699907833671786e+165  3.8231583005115677e+165  3.7769306753893854e+165  3.7312995750265831e+165  3.6862567888070730e+165  3.6417942265598378e+165  3.5979039166778530e+165  3.5545780042682582e+165  3.5118087493331822e+165  3.4695885249807677e+165  3.4279098156657626e+165  3.3867652154592393e+165  3.3461474263468845e+165  3.3060492565553475e+165  3.2664636189062409e+165  3.2273835291971982e+165  3.1888021046095865e+165  3.1507125621423867e+165  3.1131082170717570e+165  3.0759824814359295e+165  3.0393288625448634e+165  3.0031409615143366e+165  2.9674124718239611e+165  2.9321371778988222e+165  2.8973089537141906e+165  2.8629217614230147e+165  2.8289696500057761e+165  2.7954467539422630e+165  2.7623472919049945e+165  2.7296655654738102e+165  2.6973959578713087e+165  2.6655329327188140e+165  2.6340710328124275e+165  2.6030048789189215e+165  2.5723291685910479e+165  2.5420386750019850e+165  2.5121282457985800e+165  2.4825928019730222e+165  2.4534273367527382e+165  2.4246269145080658e+165  2.3961866696775105e+165  2.3681018057102308e+165  2.3403675940254558e+165  2.3129793729885973e+165  2.2859325469037090e+165  2.2592225850220654e+165  2.2328450205665602e+165  2.2067954497716434e+165  2.1810695309385991e+165  2.1556629835058243e+165  2.1305715871339127e+165  2.1057911808052336e+165  2.0813176619378704e+165  2.0571469855135501e+165  2.0332751632193975e+165  2.0096982626032869e+165  1.9864124062425303e+165  1.9634137709257151e+165  1.9406985868474273e+165  1.9182631368156913e+165  1.8961037554718739e+165  1.8742168285228704e+165  1.8525987919853629e+165  1.8312461314419349e+165  1.8101553813088642e+165  1.7893231241154084e+165  1.7687459897943304e+165  1.7484206549835715e+165  1.7283438423388148e+165  1.7085123198567835e+165  1.6889229002091019e+165  1.6695724400865235e+165  1.6504578395533997e+165  1.6315760414121516e+165  1.6129240305776465e+165  1.5944988334612859e+165  1.5762975173646242e+165  1.5583171898824188e+165  1.5405549983148964e+165  1.5230081290891164e+165  1.5056738071892934e+165  1.4885492955958816e+165  1.4716318947333502e+165  1.4549189419264415e+165  1.4384078108648137e+165  1.4220959110759110e+165  1.4059806874059470e+165  1.3900596195088476e+165  1.3743302213430315e+165  1.3587900406759108e+165  1.3434366585959716e+165  1.3282676890323321e+165  1.3132807782816252e+165  1.2984736045421201e+165  1.2838438774549485e+165  1.2693893376523136e+165  1.2551077563125991e+165  1.2409969347222286e+165  1.2270547038441927e+165  1.2132789238931309e+165  1.1996674839168523e+165  1.1862183013842189e+165  1.1729293217792481e+165  1.1597985182013761e+165  1.1468238909717539e+165  1.1340034672454913e+165  1.1213353006297629e+165  1.1088174708076596e+165  1.0964480831677127e+165  1.0842252684389981e+165  1.0721471823317201e+165  1.0602120051832024e+165  1.0484179416091878e+165  1.0367632201603777e+165  1.0252460929840966e+165  1.0138648354910536e+165  1.0026177460270614e+165  9.9150314554967593e+164  9.8051937730966077e+164  9.6966480653719993e+164  9.5893782013279868e+164  9.4833682636277949e+164  9.3786025455930688e+164  9.2750655482488430e+164  9.1727419774122125e+164  9.0716167408244194e+164  8.9716749453253269e+164  8.8729018940698022e+164  8.7752830837853311e+164  8.6788042020700762e+164  8.5834511247310633e+164  8.4892099131614815e+164  8.3960668117567720e+164  8.3040082453687556e+164  8.2130208167972694e+164  8.1230913043187280e+164  8.0342066592510006e+164  7.9463540035540378e+164  7.8595206274657798e+164  7.7736939871726126e+164  7.6888617025140895e+164  7.6050115547211