<?xml version="1.0"?>
<VTKFile type="UnstructuredGrid"  version="0.1"  >
<UnstructuredGrid>
<Piece  NumberOfPoints="20001" NumberOfCells="20000">
<Points>
<DataArray  type="Float64"  NumberOfComponents="3"  format="ascii">0 0 0  5e-05 0 0  0.0001 0 0  0.00015 0 0  0.0002 0 0  0.00025 0 0  0.0003 0 0  0.00035 0 0  0.0004 0 0  0.00045 0 0  0.0005 0 0  0.00055 0 0  0.0005999999999999999 0 0  0.00065 0 0  0.0007 0 0  0.00075 0 0  0.0008 0 0  0.00085 0 0  0.0009 0 0  0.00095 0 0  0.001 0 0  0.00105 0 0  0.0011 0 0  0.00115 0 0  0.0012 0 0  0.00125 0 0  0.0013 0 0  0.00135 0 0  0.0014 0 0  0.00145 0 0  0.0015 0 0  0.00155 0 0  0.0016 0 0  0.00165 0 0  0.0017 0 0  0.00175 0 0  0.0018 0 0  0.00185 0 0  0.0019 0 0  0.00195 0 0  0.002 0 0  0.00205 0 0  0.0021 0 0  0.00215 0 0  0.0022 0 0  0.00225 0 0  0.0023 0 0  0.00235 0 0  0.0024 0 0  0.00245 0 0  0.0025 0 0  0.00255 0 0  0.0026 0 0  0.00265 0 0  0.0027 0 0  0.00275 0 0  0.0028 0 0  0.00285 0 0  0.0029 0 0  0.00295 0 0  0.003 0 0  0.00305 0 0  0.0031 0 0  0.00315 0 0  0.0032 0 0  0.00325 0 0  0.0033 0 0  0.00335 0 0  0.0034 0 0  0.00345 0 0  0.0035 0 0  0.00355 0 0  0.0036 0 0  0.00365 0 0  0.0037 0 0  0.00375 0 0  0.0038 0 0  0.00385 0 0  0.0039 0 0  0.00395 0 0  0.004 0 0  0.00405 0 0  0.0041 0 0  0.00415 0 0  0.0042 0 0  0.00425 0 0  0.0043 0 0  0.00435 0 0  0.0044 0 0  0.00445 0 0  0.0045 0 0  0.00455 0 0  0.0046 0 0  0.00465 0 0  0.0047 0 0  0.00475 0 0  0.0048 0 0  0.00485 0 0  0.0049 0 0  0.00495 0 0  0.005 0 0  0.00505 0 0  0.0051 0 0  0.00515 0 0  0.0052 0 0  0.00525 0 0  0.0053 0 0  0.00535 0 0  0.0054 0 0  0.00545 0 0  0.0055 0 0  0.00555 0 0  0.0056 0 0  0.00565 0 0  0.0057 0 0  0.00575 0 0  0.0058 0 0  0.00585 0 0  0.0059 0 0  0.00595 0 0  0.006 0 0  0.00605 0 0  0.0061 0 0  0.00615 0 0  0.0062 0 0  0.00625 0 0  0.0063 0 0  0.00635 0 0  0.0064 0 0  0.00645 0 0  0.0065 0 0  0.00655 0 0  0.0066 0 0  0.00665 0 0  0.0067 0 0  0.00675 0 0  0.0068 0 0  0.00685 0 0  0.0069 0 0  0.00695 0 0  0.007 0 0  0.00705 0 0  0.0071 0 0  0.00715 0 0  0.0072 0 0  0.00725 0 0  0.0073 0 0  0.00735 0 0  0.0074 0 0  0.00745 0 0  0.0075 0 0  0.00755 0 0  0.0076 0 0  0.00765 0 0  0.0077 0 0  0.00775 0 0  0.0078 0 0  0.007849999999999999 0 0  0.007900000000000001 0 0  0.00795 0 0  0.008 0 0  0.00805 0 0  0.0081 0 0  0.008149999999999999 0 0  0.008200000000000001 0 0  0.00825 0 0  0.0083 0 0  0.00835 0 0  0.008399999999999999 0 0  0.008449999999999999 0 0  0.008500000000000001 0 0  0.00855 0 0  0.0086 0 0  0.00865 0 0  0.008699999999999999 0 0  0.008750000000000001 0 0  0.008800000000000001 0 0  0.00885 0 0  0.0089 0 0  0.00895 0 0  0.008999999999999999 0 0  0.009050000000000001 0 0  0.0091 0 0  0.00915 0 0  0.0092 0 0  0.00925 0 0  0.009299999999999999 0 0  0.009350000000000001 0 0  0.0094 0 0  0.00945 0 0  0.0095 0 0  0.009549999999999999 0 0  0.009599999999999999 0 0  0.009650000000000001 0 0  0.0097 0 0  0.00975 0 0  0.0098 0 0  0.009849999999999999 0 0  0.009900000000000001 0 0  0.009950000000000001 0 0  0.01 0 0  0.01005 0 0  0.0101 0 0  0.01015 0 0  0.0102 0 0  0.01025 0 0  0.0103 0 0  0.01035 0 0  0.0104 0 0  0.01045 0 0  0.0105 0 0  0.01055 0 0  0.0106 0 0  0.01065 0 0  0.0107 0 0  0.01075 0 0  0.0108 0 0  0.01085 0 0  0.0109 0 0  0.01095 0 0  0.011 0 0  0.01105 0 0  0.0111 0 0  0.01115 0 0  0.0112 0 0  0.01125 0 0  0.0113 0 0  0.01135 0 0  0.0114 0 0  0.01145 0 0  0.0115 0 0  0.01155 0 0  0.0116 0 0  0.01165 0 0  0.0117 0 0  0.01175 0 0  0.0118 0 0  0.01185 0 0  0.0119 0 0  0.01195 0 0  0.012 0 0  0.01205 0 0  0.0121 0 0  0.01215 0 0  0.0122 0 0  0.01225 0 0  0.0123 0 0  0.01235 0 0  0.0124 0 0  0.01245 0 0  0.0125 0 0  0.01255 0 0  0.0126 0 0  0.01265 0 0  0.0127 0 0  0.01275 0 0  0.0128 0 0  0.01285 0 0  0.0129 0 0  0.01295 0 0  0.013 0 0  0.01305 0 0  0.0131 0 0  0.01315 0 0  0.0132 0 0  0.01325 0 0  0.0133 0 0  0.01335 0 0  0.0134 0 0  0.01345 0 0  0.0135 0 0  0.01355 0 0  0.0136 0 0  0.01365 0 0  0.0137 0 0  0.01375 0 0  0.0138 0 0  0.01385 0 0  0.0139 0 0  0.01395 0 0  0.014 0 0  0.01405 0 0  0.0141 0 0  0.01415 0 0  0.0142 0 0  0.01425 0 0  0.0143 0 0  0.01435 0 0  0.0144 0 0  0.01445 0 0  0.0145 0 0  0.01455 0 0  0.0146 0 0  0.01465 0 0  0.0147 0 0  0.01475 0 0  0.0148 0 0  0.01485 0 0  0.0149 0 0  0.01495 0 0  0.015 0 0  0.01505 0 0  0.0151 0 0  0.01515 0 0  0.0152 0 0  0.01525 0 0  0.0153 0 0  0.01535 0 0  0.0154 0 0  0.01545 0 0  0.0155 0 0  0.01555 0 0  0.0156 0 0  0.01565 0 0  0.0157 0 0  0.01575 0 0  0.0158 0 0  0.01585 0 0  0.0159 0 0  0.01595 0 0  0.016 0 0  0.01605 0 0  0.0161 0 0  0.01615 0 0  0.0162 0 0  0.01625 0 0  0.0163 0 0  0.01635 0 0  0.0164 0 0  0.01645 0 0  0.0165 0 0  0.01655 0 0  0.0166 0 0  0.01665 0 0  0.0167 0 0  0.01675 0 0  0.0168 0 0  0.01685 0 0  0.0169 0 0  0.01695 0 0  0.017 0 0  0.01705 0 0  0.0171 0 0  0.01715 0 0  0.0172 0 0  0.01725 0 0  0.0173 0 0  0.01735 0 0  0.0174 0 0  0.01745 0 0  0.0175 0 0  0.01755 0 0  0.0176 0 0  0.01765 0 0  0.0177 0 0  0.01775 0 0  0.0178 0 0  0.01785 0 0  0.0179 0 0  0.01795 0 0  0.018 0 0  0.01805 0 0  0.0181 0 0  0.01815 0 0  0.0182 0 0  0.01825 0 0  0.0183 0 0  0.01835 0 0  0.0184 0 0  0.01845 0 0  0.0185 0 0  0.01855 0 0  0.0186 0 0  0.01865 0 0  0.0187 0 0  0.01875 0 0  0.0188 0 0  0.01885 0 0  0.0189 0 0  0.01895 0 0  0.019 0 0  0.01905 0 0  0.0191 0 0  0.01915 0 0  0.0192 0 0  0.01925 0 0  0.0193 0 0  0.01935 0 0  0.0194 0 0  0.01945 0 0  0.0195 0 0  0.01955 0 0  0.0196 0 0  0.01965 0 0  0.0197 0 0  0.01975 0 0  0.0198 0 0  0.01985 0 0  0.0199 0 0  0.01995 0 0  0.02 0 0  0.02005 0 0  0.0201 0 0  0.02015 0 0  0.0202 0 0  0.02025 0 0  0.0203 0 0  0.02035 0 0  0.0204 0 0  0.02045 0 0  0.0205 0 0  0.02055 0 0  0.0206 0 0  0.02065 0 0  0.0207 0 0  0.02075 0 0  0.0208 0 0  0.02085 0 0  0.0209 0 0  0.02095 0 0  0.021 0 0  0.02105 0 0  0.0211 0 0  0.02115 0 0  0.0212 0 0  0.02125 0 0  0.0213 0 0  0.02135 0 0  0.0214 0 0  0.02145 0 0  0.0215 0 0  0.02155 0 0  0.0216 0 0  0.02165 0 0  0.0217 0 0  0.02175 0 0  0.0218 0 0  0.02185 0 0  0.0219 0 0  0.02195 0 0  0.022 0 0  0.02205 0 0  0.0221 0 0  0.02215 0 0  0.0222 0 0  0.02225 0 0  0.0223 0 0  0.02235 0 0  0.0224 0 0  0.02245 0 0  0.0225 0 0  0.02255 0 0  0.0226 0 0  0.02265 0 0  0.0227 0 0  0.02275 0 0  0.0228 0 0  0.02285 0 0  0.0229 0 0  0.02295 0 0  0.023 0 0  0.02305 0 0  0.0231 0 0  0.02315 0 0  0.0232 0 0  0.02325 0 0  0.0233 0 0  0.02335 0 0  0.0234 0 0  0.02345 0 0  0.0235 0 0  0.02355 0 0  0.0236 0 0  0.02365 0 0  0.0237 0 0  0.02375 0 0  0.0238 0 0  0.02385 0 0  0.0239 0 0  0.02395 0 0  0.024 0 0  0.02405 0 0  0.0241 0 0  0.02415 0 0  0.0242 0 0  0.02425 0 0  0.0243 0 0  0.02435 0 0  0.0244 0 0  0.02445 0 0  0.0245 0 0  0.02455 0 0  0.0246 0 0  0.02465 0 0  0.0247 0 0  0.02475 0 0  0.0248 0 0  0.02485 0 0  0.0249 0 0  0.02495 0 0  0.025 0 0  0.02505 0 0  0.0251 0 0  0.02515 0 0  0.0252 0 0  0.02525 0 0  0.0253 0 0  0.02535 0 0  0.0254 0 0  0.02545 0 0  0.0255 0 0  0.02555 0 0  0.0256 0 0  0.02565 0 0  0.0257 0 0  0.02575 0 0  0.0258 0 0  0.02585 0 0  0.0259 0 0  0.02595 0 0  0.026 0 0  0.02605 0 0  0.0261 0 0  0.02615 0 0  0.0262 0 0  0.02625 0 0  0.0263 0 0  0.02635 0 0  0.0264 0 0  0.02645 0 0  0.0265 0 0  0.02655 0 0  0.0266 0 0  0.02665 0 0  0.0267 0 0  0.02675 0 0  0.0268 0 0  0.02685 0 0  0.0269 0 0  0.02695 0 0  0.027 0 0  0.02705 0 0  0.0271 0 0  0.02715 0 0  0.0272 0 0  0.02725 0 0  0.0273 0 0  0.02735 0 0  0.0274 0 0  0.02745 0 0  0.0275 0 0  0.02755 0 0  0.0276 0 0  0.02765 0 0  0.0277 0 0  0.02775 0 0  0.0278 0 0  0.02785 0 0  0.0279 0 0  0.02795 0 0  0.028 0 0  0.02805 0 0  0.0281 0 0  0.02815 0 0  0.0282 0 0  0.02825 0 0  0.0283 0 0  0.02835 0 0  0.0284 0 0  0.02845 0 0  0.0285 0 0  0.02855 0 0  0.0286 0 0  0.02865 0 0  0.0287 0 0  0.02875 0 0  0.0288 0 0  0.02885 0 0  0.0289 0 0  0.02895 0 0  0.029 0 0  0.02905 0 0  0.0291 0 0  0.02915 0 0  0.0292 0 0  0.02925 0 0  0.0293 0 0  0.02935 0 0  0.0294 0 0  0.02945 0 0  0.0295 0 0  0.02955 0 0  0.0296 0 0  0.02965 0 0  0.0297 0 0  0.02975 0 0  0.0298 0 0  0.02985 0 0  0.0299 0 0  0.02995 0 0  0.03 0 0  0.03005 0 0  0.0301 0 0  0.03015 0 0  0.0302 0 0  0.03025 0 0  0.0303 0 0  0.03035 0 0  0.0304 0 0  0.03045 0 0  0.0305 0 0  0.03055 0 0  0.0306 0 0  0.03065 0 0  0.0307 0 0  0.03075 0 0  0.0308 0 0  0.03085 0 0  0.0309 0 0  0.03095 0 0  0.031 0 0  0.03105 0 0  0.0311 0 0  0.03115 0 0  0.0312 0 0  0.03125 0 0  0.0313 0 0  0.03135 0 0  0.0314 0 0  0.03145 0 0  0.0315 0 0  0.03155 0 0  0.0316 0 0  0.03165 0 0  0.0317 0 0  0.03175 0 0  0.0318 0 0  0.03185 0 0  0.0319 0 0  0.03195 0 0  0.032 0 0  0.03205 0 0  0.0321 0 0  0.03215 0 0  0.0322 0 0  0.03225 0 0  0.0323 0 0  0.03235 0 0  0.0324 0 0  0.03245 0 0  0.0325 0 0  0.03255 0 0  0.0326 0 0  0.03265 0 0  0.0327 0 0  0.03275 0 0  0.0328 0 0  0.03285 0 0  0.0329 0 0  0.03295 0 0  0.033 0 0  0.03305 0 0  0.0331 0 0  0.03315 0 0  0.0332 0 0  0.03325 0 0  0.0333 0 0  0.03335 0 0  0.0334 0 0  0.03345 0 0  0.0335 0 0  0.03355 0 0  0.0336 0 0  0.03365 0 0  0.0337 0 0  0.03375 0 0  0.0338 0 0  0.03385 0 0  0.0339 0 0  0.03395 0 0  0.034 0 0  0.03405 0 0  0.0341 0 0  0.03415 0 0  0.0342 0 0  0.03425 0 0  0.0343 0 0  0.03435 0 0  0.0344 0 0  0.03445 0 0  0.0345 0 0  0.03455 0 0  0.0346 0 0  0.03465 0 0  0.0347 0 0  0.03475 0 0  0.0348 0 0  0.03485 0 0  0.0349 0 0  0.03495 0 0  0.035 0 0  0.03505 0 0  0.0351 0 0  0.03515 0 0  0.0352 0 0  0.03525 0 0  0.0353 0 0  0.03535 0 0  0.0354 0 0  0.03545 0 0  0.0355 0 0  0.03555 0 0  0.0356 0 0  0.03565 0 0  0.0357 0 0  0.03575 0 0  0.0358 0 0  0.03585 0 0  0.0359 0 0  0.03595 0 0  0.036 0 0  0.03605 0 0  0.0361 0 0  0.03615 0 0  0.0362 0 0  0.03625 0 0  0.0363 0 0  0.03635 0 0  0.0364 0 0  0.03645 0 0  0.0365 0 0  0.03655 0 0  0.0366 0 0  0.03665 0 0  0.0367 0 0  0.03675 0 0  0.0368 0 0  0.03685 0 0  0.0369 0 0  0.03695 0 0  0.037 0 0  0.03705 0 0  0.0371 0 0  0.03715 0 0  0.0372 0 0  0.03725 0 0  0.0373 0 0  0.03735 0 0  0.0374 0 0  0.03745 0 0  0.0375 0 0  0.03755 0 0  0.0376 0 0  0.03765 0 0  0.0377 0 0  0.03775 0 0  0.0378 0 0  0.03785 0 0  0.0379 0 0  0.03795 0 0  0.038 0 0  0.03805 0 0  0.0381 0 0  0.0
[...]
<PointData  Scalars="f_13"> 
<DataArray  type="Float64"  Name="f_13"  format="ascii">1.4910974200469738e+80  6.3697577313466269e+75  2.7556859905734229e+75  1.6280458512169979e+75  1.0973405165753485e+75  7.9657840493874994e+74  6.0669780778655896e+74  4.7798604805171956e+74  3.8621186423319954e+74  3.1824613114380114e+74  2.6640331942576425e+74  2.2591036764995610e+74  1.9366100427415887e+74  1.6755543321400209e+74  1.4612883408844929e+74  1.2833187847428245e+74  1.1339564224841225e+74  1.0074552028149956e+74  8.9944701464344099e+73  8.0656074128679120e+73  7.2615958305264090e+73  6.5615622272615143e+73  5.9488039317181991e+73  5.4098243813210156e+73  4.9336204717637774e+73  4.5111488848279841e+73  4.1349215706968374e+73  3.7986957058718988e+73  3.4972336255257337e+73  3.2261151806399089e+73  2.9815897895675359e+73  2.7604588409912744e+73  2.5599815165805306e+73  2.3777988385869892e+73  2.2118720125902516e+73  2.0604320663488678e+73  1.9219384771314072e+73  1.7950449981708194e+73  1.6785712866566805e+73  1.5714792341900652e+73  1.4728531297847537e+73  1.3818829626662505e+73  1.2978503100116140e+73  1.2201163627775289e+73  1.1481117278693509e+73  1.0813277123491078e+73  1.0193088491215244e+73  9.6164646658068085e+72  9.0797313934589562e+72  8.5795788523386585e+72  8.1130199637501169e+72  7.6773541095173617e+72  7.2701354724928667e+72  6.8891453422222932e+72  6.5323678310978713e+72  6.1979685319306594e+72  5.8842757190482444e+72  5.5897637544084199e+72  5.3130384099253814e+72  5.0528238589405119e+72  4.8079511249182657e+72  4.5773478051345588e+72  4.3600289122696029e+72  4.1550886981716157e+72  3.9616933422414201e+72  3.7790744024099517e+72  3.6065229399639126e+72  3.4433842408683508e+72  3.2890530660304629e+72  3.1429693713891488e+72  3.0046144460028432e+72  2.8735074226144758e+72  2.7492021206404264e+72  2.6312841862805129e+72  2.5193684985809382e+72  2.4130968138875807e+72  2.3121356242770606e+72  2.2161742083095176e+72  2.1249228548635810e+72  2.0381112429359486e+72  1.9554869621542092e+72  1.8768141603954786e+72  1.8018723063538790e+72  1.7304550561812807e+72  1.6623692144597318e+72  1.5974337807687424e+72  1.5354790740022154e+72  1.4763459273819640e+72  1.4198849478196521e+72  1.3659558339068451e+72  1.3144267473729690e+72  1.2651737333511584e+72  1.2180801852392211e+72  1.1730363503433157e+72  1.1299388728507932e+72  1.0886903710005780e+72  1.0491990456086574e+72  1.0113783173662995e+72  9.7514649056266982e+71  9.4042644109440620e+71  9.0714532681499601e+71  8.7523431844849311e+71  8.4462834944736556e+71  8.1526588331467504e+71  7.8708869703790118e+71  7.6004167939696626e+71  7.3407264301350358e+71  7.0913214910328690e+71  6.8517334397997838e+71  6.6215180643672096e+71  6.4002540520346604e+71  6.1875416574294303e+71  5.9830014570741454e+71  5.7862731843241794e+71  5.5970146389307122e+71  5.4149006659360537e+71  5.2396221990202774e+71  5.0708853637955880e+71  4.9084106368904911e+71  4.7519320569822938e+71  4.6011964842270946e+71  4.4559629048026059e+71  4.3160017775240829e+71  4.1810944197182238e+71  4.0510324297466571e+71  3.9256171437608820e+71  3.8046591244454518e+71  3.6879776796674886e+71  3.5754004090992754e+71  3.4667627770176861e+71  3.3619077096106768e+71  3.2606852152379587e+71  3.1629520262007420e+71  3.0685712606752014e+71  2.9774121035565834e+71  2.8893495050462199e+71  2.8042638958926808e+71  2.7220409182715601e+71  2.6425711713562202e+71  2.5657499706946947e+71  2.4914771205663780e+71  2.4196566985462734e+71  2.3501968515548618e+71  2.2830096027184674e+71  2.2180106684083600e+71  2.1551192848673503e+71  2.0942580438701401e+71  2.0353527368987237e+71  1.9783322073467784e+71  1.9231282102972600e+71  1.8696752794457780e+71  1.8179106007687324e+71  1.7677738925597544e+71  1.7192072914810385e+71  1.6721552442975641e+71  1.6265644049822494e+71  1.5823835368988015e+71  1.5395634197865789e+71  1.4980567612880549e+71  1.4578181127748743e+71  1.4188037892427581e+71  1.3809717930589817e+71  1.3442817413586668e+71  1.3086947968979401e+71  1.2741736021830134e+71  1.2406822167046078e+71  1.2081860571168234e+71  1.1766518402086915e+71  1.1460475285251580e+71  1.1163422785022846e+71  1.0875063909889893e+71  1.0595112640347183e+71  1.0323293478290984e+71  1.0059341016858778e+71  9.8029995296933703e+70  9.5540225786688623e+70  9.3121726391678587e+70  9.0772207420479594e+70  8.8489461314821935e+70  8.6271359379011488e+70  8.4115848653056468e+70  8.2020948922575323e+70  7.9984749858923410e+70  7.8005408283319634e+70  7.6081145549079359e+70  7.4210245036363930e+70  7.2391049754146297e+70  7.0621960044363312e+70  6.8901431383484382e+70  6.7227972276965316e+70  6.5600142242290171e+70  6.4016549876517384e+70  6.2475851004452193e+70  6.0976746903761691e+70  5.9517982603532372e+70  5.8098345252941776e+70  5.6716662556882635e+70  5.5371801275531154e+70  5.4062665784998164e+70  5.2788196696343317e+70  5.1547369530361245e+70  5.0339193445677023e+70  4.9162710017804187e+70  4.8016992066931594e+70  4.6901142532312888e+70  4.5814293391232048e+70  4.4755604620614867e+70  4.3724263199447311e+70  4.2719482150247533e+70  4.1740499617920551e+70  4.0786577984402045e+70  3.9857003017572097e+70  3.8951083052989060e+70  3.8068148207061349e+70  3.7207549620337173e+70  3.6368658729653370e+70  3.5550866567941199e+70  3.4753583090541344e+70  3.3976236526932434e+70  3.3218272756826380e+70  3.2479154709630760e+70  3.1758361786322854e+70  3.1055389302822641e+70  3.0369747953992079e+70  2.9700963297426793e+70  2.9048575256242915e+70  2.8412137640096257e+70  2.7791217683704840e+70  2.7185395602176927e+70  2.6594264162477094e+70  2.6017428270392037e+70  2.5454504572384495e+70  2.4905121071750264e+70  2.4368916758518437e+70  2.3845541252558250e+70  2.3334654459378999e+70  2.2835926238131200e+70  2.2349036081337444e+70  2.1873672805901858e+70  2.1409534254965025e+70  2.0956327010189833e+70  2.0513766114080991e+70  2.0081574801956939e+70  1.9659484243208675e+70  1.9247233291495455e+70  1.8844568243540976e+70  1.8451242606207862e+70  1.8067016871541173e+70  1.7691658299484214e+70  1.7324940707981690e+70  1.6966644270197179e+70  1.6616555318582424e+70  1.6274466155546444e+70  1.5940174870482831e+70  1.5613485162922843e+70  1.5294206171591242e+70  1.4982152309150698e+70  1.4677143102428847e+70  1.4379003037930112e+70  1.4087561412442474e+70  1.3802652188556403e+70  1.3524113854920336e+70  1.3251789291064015e+70  1.2985525636627315e+70  1.2725174164838697e+70  1.2470590160093115e+70  1.2221632799485059e+70  1.1978165038157961e+70  1.1740053498336412e+70  1.1507168361912634e+70  1.1279383266463684e+70  1.1056575204580332e+70  1.0838624426393037e+70  1.0625414345184824e+70  1.0416831445984994e+70  1.0212765197041353e+70  1.0013107964072666e+70  9.8177549272065117e+69  9.6266040005112622e+69  9.4395557540343415e+69  9.2565133382619853e+69  9.0773824109189158e+69  8.9020710660293384e+69  8.7304897651634424e+69  8.5625512707963934e+69  8.3981705817094344e+69  8.2372648703650795e+69  8.0797534221913416e+69  7.9255575767114679e+69  7.7746006704586633e+69  7.6268079816170063e+69  7.4821066763320031e+69  7.3404257566361715e+69  7.2016960099370486e+69  7.0658499600167922e+69  6.9328218194943496e+69  6.8025474437028962e+69  6.6749642859369338e+69  6.5500113540248999e+69  6.4276291681848820e+69  6.3077597201222323e+69  6.1903464333295710e+69  6.0753341245508353e+69  5.9626689663724206e+69  5.8522984509057340e+69  5.7441713545266468e+69  5.6382377036386326e+69  5.5344487414273143e+69  5.4327568955754573e+69  5.3331157469082221e+69  5.2354799989398349e+69  5.1398054482935322e+69  5.0460489559677210e+69  4.9541684194221180e+69  4.8641227454586242e+69  4.7758718238723718e+69  4.6893765018493807e+69  4.6045985590878407e+69  4.5215006836209580e+69  4.4400464483199968e+69  4.3602002880567125e+69  4.2819274775053236e+69  4.2051941095645094e+69  4.1299670743808262e+69  4.0562140389553444e+69  3.9839034273159985e+69  3.9130044012387444e+69  3.8434868415009905e+69  3.7753213296515539e+69  3.7084791302816603e+69  3.6429321737821391e+69  3.5786530395724594e+69  3.5156149397875601e+69  3.4537917034090824e+69  3.3931577608278181e+69  3.3336881288247999e+69  3.2753583959587570e+69  3.2181447083480248e+69  3.1620237558354649e+69  3.1069727585251807e+69  3.0529694536803370e+69  2.9999920829715453e+69  2.9480193800657107e+69  2.8970305585455966e+69  2.8470053001504501e+69  2.7979237433286264e+69  2.7497664720931957e+69  2.7025145051719003e+69  2.6561492854430818e+69  2.6106526696494179e+69  2.5660069183816372e+69  2.5221946863245024e+69  2.4791990127576960e+69  2.4370033123044360e+69  2.3955913659208077e+69  2.3549473121191051e+69  2.3150556384185648e+69  2.2759011730172275e+69  2.2374690766786832e+69  2.1997448348277387e+69  2.1627142498492533e+69  2.1263634335844515e+69  2.0906788000192947e+69  2.0556470581595884e+69  2.0212552050877091e+69  1.9874905191959485e+69  1.9543405535916046e+69  1.9217931296691998e+69  1.8898363308451795e+69  1.8584584964506980e+69  1.8276482157782242e+69  1.7973943222777409e+69  1.7676858878985270e+69  1.7385122175725556e+69  1.7098628438357492e+69  1.6817275215833122e+69  1.6540962229555743e+69  1.6269591323508658e+69  1.6003066415619752e+69  1.5741293450329658e+69  1.5484180352330645e+69  1.5231636981445660e+69  1.4983575088617209e+69  1.4739908272976397e+69  1.4500551939964019e+69  1.4265423260475506e+69  1.4034441131003231e+69  1.3807526134749633e+69  1.3584600503685747e+69  1.3365588081530789e+69  1.3150414287628156e+69  1.2939006081694975e+69  1.2731291929422238e+69  1.2527201768903390e+69  1.2326666977870223e+69  1.2129620341714731e+69  1.1935996022277188e+69  1.1745729527380195e+69  1.1558757681089779e+69  1.1375018594685030e+69  1.1194451638317715e+69  1.1016997413344697e+69  1.0842597725315589e+69  1.0671195557599253e+69  1.0502735045632733e+69  1.0337161451776924e+69  1.0174421140763583e+69  1.0014461555718633e+69  9.8572311947474891e+68  9.7026795880679496e+68  9.5507572756770297e+68  9.4014157855384472e+68  9.2546076122774536e+68  9.1102861963706349e+68  8.9684059038181010e+68  8.8289220062860945e+68  8.6917906617084690e+68  8.5569688953354675e+68  8.4244145812188683e+68  8.2940864241225003e+68  8.1659439418479578e+68  8.0399474479649675e+68  7.9160580349366109e+68  7.7942375576297084e+68  7.6744486172008646e+68  7.5566545453490937e+68  7.4408193889259496e+68  7.3269078948945190e+68  7.2148854956287873e+68  7.1047182945450581e+68  6.9963730520575081e+68  6.8898171718498160e+68  6.7850186874554470e+68  6.6819462491390327e+68  6.5805691110715708e+68  6.4808571187925094e+68  6.3827806969516882e+68  6.2863108373245690e+68  6.1914190870940806e+68  6.0980775373928217e+68  6.0062588120994076e+68  5.9159360568828332e+68  5.8270829284890644e+68  5.7396735842640531e+68  5.6536826719075849e+68  5.5690853194525813e+68  5.4858571254643706e+68  5.4039741494549664e+68  5.3234129025070801e+68  5.2441503381031641e+68  5.1661638431544617e+68  5.0894312292255513e+68  5.0139307239497923e+68  4.9396409626310895e+68  4.8665409800278561e+68  4.7946102023147657e+68  4.7238284392182118e+68  4.6541758763215535e+68  4.5856330675360340e+68  4.5181809277337527e+68  4.4518007255387897e+68  4.3864740762729251e+68  4.3221829350524121e+68  4.2589095900322803e+68  4.1966366557948425e+68  4.1353470668790942e+68  4.0750240714477977e+68  4.0156512250890727e+68  3.9572123847494733e+68  3.8996917027955766e+68  3.8430736212011133e+68  3.7873428658568803e+68  3.7324844410005632e+68  3.6784836237638025e+68  3.6253259588339405e+68  3.5729972532277008e+68  3.5214835711744560e+68  3.4707712291065230e+68  3.4208467907540983e+68  3.3716970623425609e+68  3.3233090878897448e+68  3.2756701446010848e+68  3.2287677383603244e+68  3.1825895993137840e+68  3.1371236775460218e+68  3.0923581388449025e+68  3.0482813605541054e+68  3.0048819275110982e+68  2.9621486280687550e+68  2.9200704501987245e+68  2.8786365776747543e+68  2.8378363863342625e+68  2.7976594404163627e+68  2.7580954889747856e+68  2.7191344623639066e+68  2.6807664687964434e+68  2.6429817909711390e+68  2.6057708827689584e+68  2.5691243660163448e+68  2.5330330273139922e+68  2.4974878149298111e+68  2.4624798357546280e+68  2.4280003523192926e+68  2.3940407798718890e+68  2.3605926835136973e+68  2.3276477753927203e+68  2.2951979119534730e+68  2.2632350912418445e+68  2.2317514502639123e+68  2.2007392623974459e+68  2.1701909348550860e+68  2.1400990061980222e+68  2.1104561438991230e+68  2.0812551419544716e+68  2.0524889185422696e+68  2.0241505137281237e+68  1.9962330872156861e+68  1.9687299161417646e+68  1.9416343929148924e+68  1.9149400230964758e+68  1.8886404233236425e+68  1.8627293192728653e+68  1.8372005436635582e+68  1.8120480343007630e+68  1.7872658321561325e+68  1.7628480794864183e+68  1.7387890179886490e+68  1.7150829869912719e+68  1.6917244216804721e+68  1.6687078513609819e+68  1.6460278977506255e+68  1.6236792733079075e+68  1.6016567795919994e+68  1.5799553056543876e+68  1.5585698264615989e+68  1.5374954013483173e+68  1.5167271725002761e+68  1.4962603634663323e+68  1.4760902776990962e+68  1.4562122971235576e+68  1.4366218807331172e+68  1.4173145632124664e+68  1.3982859535867866e+68  1.3795317338966906e+68  1.3610476578984318e+68  1.3428295497888248e+68  1.3248733029544091e+68  1.3071748787443430e+68  1.2897303052665467e+68  1.2725356762066480e+68  1.2555871496692375e+68  1.2388809470410171e+68  1.2224133518753700e+68  1.2061807087979359e+68  1.1901794224327813e+68  1.1744059563487274e+68  1.1588568320254543e+68  1.1435286278389633e+68  1.1284179780660348e+68  1.1135215719072876e+68  1.0988361525284637e+68  1.0843585161196039e+68  1.0700855109717166e+68  1.0560140365706334e+68  1.0421410427076862e+68  1.0284635286068741e+68  1.0149785420682121e+68  1.0016831786269187e+68  9.8857458072814586e+67  9.7564993691693885e+67  9.6290648104312508e+67  9.5034149148085114e+67  9.3795229036245984e+67  9.2573624282644382e+67  9.1369075627918805e+67  9.0181327967024627e+67  8.9010130278087483e+67  8.7855235552556239e+67  8.6716400726632200e+67  8.5593386613947009e+67  8.4485957839467862e+67  8.3393882774603892e+67  8.2316933473491383e+67  8.1254885610435590e+67  8.0207518418485554e+67  7.9174614629121384e+67  7.8155960413031389e+67  7.7151345321958408e+67  7.6160562231595771e+67  7.5183407285511046e+67  7.4219679840079513e+67  7.3269182410406071e+67  7.2331720617219279e+67  7.1407103134716441e+67  7.0495141639342958e+67  6.9595650759488239e+67  6.8708448026079364e+67  6.7833353824057390e+67  6.6970191344717948e+67  6.6118786538900056e+67  6.5278968071008305e+67  6.4450567273850431e+67  6.3633418104277174e+67  6.2827357099607000e+67  6.2032223334823377e+67  6.1247858380528096e+67  6.0474106261636838e+67  5.9710813416803958e+67  5.8957828658561081e+67  5.8215003134158418e+67  5.7482190287093723e+67  5.6759245819316256e+67  5.6046027654094873e+67  5.5342395899535219e+67  5.4648212812736041e+67  5.3963342764571769e+67  5.3287652205089915e+67  5.2621009629512097e+67  5.1963285544826815e+67  5.1314352436963938e+67  5.0674084738539263e+67  5.0042358797159434e+67  4.9419052844276341e+67  4.8804046964580564e+67  4.8197223065924899e+67  4.7598464849767501e+67  4.7007657782125333e+67  4.6424689065028335e+67  4.5849447608465426e+67  4.5281824002812817e+67  4.4721710491737041e+67  4.4169000945562363e+67  4.3623590835095173e+67  4.3085377205896941e+67  4.2554258652997032e+67  4.2030135296038193e+67  4.1512908754846002e+67  4.1002482125415416e+67  4.0498759956305978e+67  4.0001648225438824e+67  3.9511054317288506e+67  3.9026887000461668e+67  3.8549056405656434e+67  3.8077474003994642e+67  3.7612052585721970e+67  3.7152706239266834e+67  3.6699350330654080e+67  3.6251901483265479e+67  3.5810277557941190e+67  3.5374397633416856e+67  3.4944181987089087e+67  3.4519552076104336e+67  3.4100430518765265e+67  3.3686741076248361e+67  3.3278408634628458e+67  3.2875359187203346e+67  3.2477519817113899e+67  3.2084818680254652e+67  3.1697184988468637e+67  3.1314548993023102e+67  3.0936841968359475e+67  3.0563996196113872e+67  3.0195944949402784e+67  2.9832622477369310e+67  2.9473963989985973e+67  2.9119905643108552e+67  2.8770384523777502e+67  2.8425338635761995e+67  2.8084706885342350e+67  2.7748429067327350e+67  2.7416445851301425e+67  2.7088698768098265e+67  2.6765130196496677e+67  2.6445683350134724e+67  2.6130302264638945e+67  2.5818931784964000e+67  2.5511517552939803e+67  2.5208005995021975e+67  2.4908344310242950e+67  2.4612480458359056e+67  2.4320363148191139e+67  2.4031941826155195e+67  2.3747166664979128e+67  2.3465988552603463e+67  2.3188359081261859e+67  2.2914230536738737e+67  2.2643555887801264e+67  2.2376288775802005e+67  2.2112383504450086e+67  2.1851795029747312e+67  2.1594478950086863e+67  2.1340391496511636e+67  2.1089489523129195e+67  2.0841730497681471e+67  2.0597072492265521e+67  2.0355474174203634e+67  2.0116894797059815e+67  1.9881294191800079e+67  1.9648632758094589e+67  1.9418871455758654e+67  1.9191971796330648e+67  1.8967895834784345e+67  1.8746606161373220e+67  1.8528065893605116e+67  1.8312238668344272e+67  1.8099088634039182e+67  1.7888580443073581e+67  1.7680679244239374e+67  1.7475350675328466e+67  1.7272560855841992e+67  1.7072276379815094e+67  1.6874464308754957e+67  1.6679092164690587e+67  1.6486127923332003e+67  1.6295540007337504e+67  1.6107297279686780e+67  1.5921369037158375e+67  1.5737725003909727e+67  1.5556335325157871e+67  1.5377170560959397e+67  1.5200201680088010e+67  1.5025400054007608e+67  1.4852737450939987e+67  1.4682186030025156e+67  1.4513718335572763e+67  1.4347307291403287e+67  1.4182926195277286e+67  1.4020548713411658e+67  1.3860148875080852e+67  1.3701701067302240e+67  1.3545180029603968e+67  1.3390560848873790e+67  1.3237818954287999e+67  1.3086930112318681e+67  1.2937870421818207e+67  1.2790616309179867e+67  1.2645144523572920e+67  1.2501432132251482e+67  1.2359456515935456e+67  1.2219195364262710e+67  1.2080626671311129e+67  1.1943728731189623e+67  1.1808480133696687e+67  1.1674859760045609e+67  1.1542846778655221e+67  1.1412420641005041e+67  1.1283561077553960e+67  1.1156248093721126e+67  1.1030461965928332e+67  1.0906183237702770e+67  1.0783392715839072e+67  1.0662071466620008e+67  1.0542200812094484e+67  1.0423762326412214e+67  1.0306737832214067e+67  1.0191109397077102e+67  1.0076859330013664e+67  9.9639701780233028e+66  9.8524247226970343e+66  9.7422059768728460e+66  9.6332971813417336e+66  9.5256818016035275e+66  9.4193435246715427e+66  9.3142662559253879e+66  9.2104341160112167e+66  9.1078314377884904e+66  9.0064427633227009e+66  8.9062528409231736e+66  8.8072466222253983e+66  8.7094092593168721e+66  8.6127261019062782e+66  8.5171826945347377e+66  8.4227647738288934e+66  8.3294582657949596e+66  8.2372492831531233e+66  8.1461241227117575e+66  8.0560692627806828e+66  7.9670713606228850e+66  7.8791172499442451e+66  7.7921939384203698e+66  7.7062886052603253e+66  7.6213885988063578e+66  7.5374814341692341e+66  7.4545547908985967e+66  7.3725965106876807e+66  7.2915945951121147e+66  7.2115372034019574e+66  7.1324126502466738e+66  7.0542094036324315e+66  6.9769160827112637e+66  6.9005214557015885e+66  6.8250144378195937e+66  6.7503840892409747e+66  6.6766196130926552e+66  6.6037103534738562e+66  6.5316457935062607e+66  6.4604155534126353e+66  6.3900093886236252e+66  6.3204171879121552e+66  6.2516289715551232e+66  6.1836348895218845e+66  6.1164252196891421e+66  6.0499903660818536e+66  5.9843208571396865e+66  5.9194073440087693e+66  5.8552405988581839e+66  5.7918115132208859e+66  5.7291110963587741e+66  5.6671304736513538e+66  5.6058608850078030e+66  5.5452936833019612e+66  5.4854203328299804e+66  5.4262324077902327e+66  5.3677215907851049e+66  5.3098796713445166e+66  5.2526985444705980e+66  5.1961702092033794e+66  5.1402867672070737e+66  5.0850404213766813e+66  5.0304234744646561e+66  4.9764283277272016e+66  4.9230474795899937e+66  4.8702735243330656e+66  4.8180991507944312e+66  4.7665171410923462e+66  4.7155203693657395e+66  4.6651018005326671e+66  4.6152544890664819e+66  4.5659715777894206e+66  4.5172462966834195e