<?xml version="1.0"?>
<VTKFile type="UnstructuredGrid"  version="0.1"  >
<UnstructuredGrid>
<Piece  NumberOfPoints="20001" NumberOfCells="20000">
<Points>
<DataArray  type="Float64"  NumberOfComponents="3"  format="ascii">0 0 0  5e-05 0 0  0.0001 0 0  0.00015 0 0  0.0002 0 0  0.00025 0 0  0.0003 0 0  0.00035 0 0  0.0004 0 0  0.00045 0 0  0.0005 0 0  0.00055 0 0  0.0005999999999999999 0 0  0.00065 0 0  0.0007 0 0  0.00075 0 0  0.0008 0 0  0.00085 0 0  0.0009 0 0  0.00095 0 0  0.001 0 0  0.00105 0 0  0.0011 0 0  0.00115 0 0  0.0012 0 0  0.00125 0 0  0.0013 0 0  0.00135 0 0  0.0014 0 0  0.00145 0 0  0.0015 0 0  0.00155 0 0  0.0016 0 0  0.00165 0 0  0.0017 0 0  0.00175 0 0  0.0018 0 0  0.00185 0 0  0.0019 0 0  0.00195 0 0  0.002 0 0  0.00205 0 0  0.0021 0 0  0.00215 0 0  0.0022 0 0  0.00225 0 0  0.0023 0 0  0.00235 0 0  0.0024 0 0  0.00245 0 0  0.0025 0 0  0.00255 0 0  0.0026 0 0  0.00265 0 0  0.0027 0 0  0.00275 0 0  0.0028 0 0  0.00285 0 0  0.0029 0 0  0.00295 0 0  0.003 0 0  0.00305 0 0  0.0031 0 0  0.00315 0 0  0.0032 0 0  0.00325 0 0  0.0033 0 0  0.00335 0 0  0.0034 0 0  0.00345 0 0  0.0035 0 0  0.00355 0 0  0.0036 0 0  0.00365 0 0  0.0037 0 0  0.00375 0 0  0.0038 0 0  0.00385 0 0  0.0039 0 0  0.00395 0 0  0.004 0 0  0.00405 0 0  0.0041 0 0  0.00415 0 0  0.0042 0 0  0.00425 0 0  0.0043 0 0  0.00435 0 0  0.0044 0 0  0.00445 0 0  0.0045 0 0  0.00455 0 0  0.0046 0 0  0.00465 0 0  0.0047 0 0  0.00475 0 0  0.0048 0 0  0.00485 0 0  0.0049 0 0  0.00495 0 0  0.005 0 0  0.00505 0 0  0.0051 0 0  0.00515 0 0  0.0052 0 0  0.00525 0 0  0.0053 0 0  0.00535 0 0  0.0054 0 0  0.00545 0 0  0.0055 0 0  0.00555 0 0  0.0056 0 0  0.00565 0 0  0.0057 0 0  0.00575 0 0  0.0058 0 0  0.00585 0 0  0.0059 0 0  0.00595 0 0  0.006 0 0  0.00605 0 0  0.0061 0 0  0.00615 0 0  0.0062 0 0  0.00625 0 0  0.0063 0 0  0.00635 0 0  0.0064 0 0  0.00645 0 0  0.0065 0 0  0.00655 0 0  0.0066 0 0  0.00665 0 0  0.0067 0 0  0.00675 0 0  0.0068 0 0  0.00685 0 0  0.0069 0 0  0.00695 0 0  0.007 0 0  0.00705 0 0  0.0071 0 0  0.00715 0 0  0.0072 0 0  0.00725 0 0  0.0073 0 0  0.00735 0 0  0.0074 0 0  0.00745 0 0  0.0075 0 0  0.00755 0 0  0.0076 0 0  0.00765 0 0  0.0077 0 0  0.00775 0 0  0.0078 0 0  0.007849999999999999 0 0  0.007900000000000001 0 0  0.00795 0 0  0.008 0 0  0.00805 0 0  0.0081 0 0  0.008149999999999999 0 0  0.008200000000000001 0 0  0.00825 0 0  0.0083 0 0  0.00835 0 0  0.008399999999999999 0 0  0.008449999999999999 0 0  0.008500000000000001 0 0  0.00855 0 0  0.0086 0 0  0.00865 0 0  0.008699999999999999 0 0  0.008750000000000001 0 0  0.008800000000000001 0 0  0.00885 0 0  0.0089 0 0  0.00895 0 0  0.008999999999999999 0 0  0.009050000000000001 0 0  0.0091 0 0  0.00915 0 0  0.0092 0 0  0.00925 0 0  0.009299999999999999 0 0  0.009350000000000001 0 0  0.0094 0 0  0.00945 0 0  0.0095 0 0  0.009549999999999999 0 0  0.009599999999999999 0 0  0.009650000000000001 0 0  0.0097 0 0  0.00975 0 0  0.0098 0 0  0.009849999999999999 0 0  0.009900000000000001 0 0  0.009950000000000001 0 0  0.01 0 0  0.01005 0 0  0.0101 0 0  0.01015 0 0  0.0102 0 0  0.01025 0 0  0.0103 0 0  0.01035 0 0  0.0104 0 0  0.01045 0 0  0.0105 0 0  0.01055 0 0  0.0106 0 0  0.01065 0 0  0.0107 0 0  0.01075 0 0  0.0108 0 0  0.01085 0 0  0.0109 0 0  0.01095 0 0  0.011 0 0  0.01105 0 0  0.0111 0 0  0.01115 0 0  0.0112 0 0  0.01125 0 0  0.0113 0 0  0.01135 0 0  0.0114 0 0  0.01145 0 0  0.0115 0 0  0.01155 0 0  0.0116 0 0  0.01165 0 0  0.0117 0 0  0.01175 0 0  0.0118 0 0  0.01185 0 0  0.0119 0 0  0.01195 0 0  0.012 0 0  0.01205 0 0  0.0121 0 0  0.01215 0 0  0.0122 0 0  0.01225 0 0  0.0123 0 0  0.01235 0 0  0.0124 0 0  0.01245 0 0  0.0125 0 0  0.01255 0 0  0.0126 0 0  0.01265 0 0  0.0127 0 0  0.01275 0 0  0.0128 0 0  0.01285 0 0  0.0129 0 0  0.01295 0 0  0.013 0 0  0.01305 0 0  0.0131 0 0  0.01315 0 0  0.0132 0 0  0.01325 0 0  0.0133 0 0  0.01335 0 0  0.0134 0 0  0.01345 0 0  0.0135 0 0  0.01355 0 0  0.0136 0 0  0.01365 0 0  0.0137 0 0  0.01375 0 0  0.0138 0 0  0.01385 0 0  0.0139 0 0  0.01395 0 0  0.014 0 0  0.01405 0 0  0.0141 0 0  0.01415 0 0  0.0142 0 0  0.01425 0 0  0.0143 0 0  0.01435 0 0  0.0144 0 0  0.01445 0 0  0.0145 0 0  0.01455 0 0  0.0146 0 0  0.01465 0 0  0.0147 0 0  0.01475 0 0  0.0148 0 0  0.01485 0 0  0.0149 0 0  0.01495 0 0  0.015 0 0  0.01505 0 0  0.0151 0 0  0.01515 0 0  0.0152 0 0  0.01525 0 0  0.0153 0 0  0.01535 0 0  0.0154 0 0  0.01545 0 0  0.0155 0 0  0.01555 0 0  0.0156 0 0  0.01565 0 0  0.0157 0 0  0.01575 0 0  0.0158 0 0  0.01585 0 0  0.0159 0 0  0.01595 0 0  0.016 0 0  0.01605 0 0  0.0161 0 0  0.01615 0 0  0.0162 0 0  0.01625 0 0  0.0163 0 0  0.01635 0 0  0.0164 0 0  0.01645 0 0  0.0165 0 0  0.01655 0 0  0.0166 0 0  0.01665 0 0  0.0167 0 0  0.01675 0 0  0.0168 0 0  0.01685 0 0  0.0169 0 0  0.01695 0 0  0.017 0 0  0.01705 0 0  0.0171 0 0  0.01715 0 0  0.0172 0 0  0.01725 0 0  0.0173 0 0  0.01735 0 0  0.0174 0 0  0.01745 0 0  0.0175 0 0  0.01755 0 0  0.0176 0 0  0.01765 0 0  0.0177 0 0  0.01775 0 0  0.0178 0 0  0.01785 0 0  0.0179 0 0  0.01795 0 0  0.018 0 0  0.01805 0 0  0.0181 0 0  0.01815 0 0  0.0182 0 0  0.01825 0 0  0.0183 0 0  0.01835 0 0  0.0184 0 0  0.01845 0 0  0.0185 0 0  0.01855 0 0  0.0186 0 0  0.01865 0 0  0.0187 0 0  0.01875 0 0  0.0188 0 0  0.01885 0 0  0.0189 0 0  0.01895 0 0  0.019 0 0  0.01905 0 0  0.0191 0 0  0.01915 0 0  0.0192 0 0  0.01925 0 0  0.0193 0 0  0.01935 0 0  0.0194 0 0  0.01945 0 0  0.0195 0 0  0.01955 0 0  0.0196 0 0  0.01965 0 0  0.0197 0 0  0.01975 0 0  0.0198 0 0  0.01985 0 0  0.0199 0 0  0.01995 0 0  0.02 0 0  0.02005 0 0  0.0201 0 0  0.02015 0 0  0.0202 0 0  0.02025 0 0  0.0203 0 0  0.02035 0 0  0.0204 0 0  0.02045 0 0  0.0205 0 0  0.02055 0 0  0.0206 0 0  0.02065 0 0  0.0207 0 0  0.02075 0 0  0.0208 0 0  0.02085 0 0  0.0209 0 0  0.02095 0 0  0.021 0 0  0.02105 0 0  0.0211 0 0  0.02115 0 0  0.0212 0 0  0.02125 0 0  0.0213 0 0  0.02135 0 0  0.0214 0 0  0.02145 0 0  0.0215 0 0  0.02155 0 0  0.0216 0 0  0.02165 0 0  0.0217 0 0  0.02175 0 0  0.0218 0 0  0.02185 0 0  0.0219 0 0  0.02195 0 0  0.022 0 0  0.02205 0 0  0.0221 0 0  0.02215 0 0  0.0222 0 0  0.02225 0 0  0.0223 0 0  0.02235 0 0  0.0224 0 0  0.02245 0 0  0.0225 0 0  0.02255 0 0  0.0226 0 0  0.02265 0 0  0.0227 0 0  0.02275 0 0  0.0228 0 0  0.02285 0 0  0.0229 0 0  0.02295 0 0  0.023 0 0  0.02305 0 0  0.0231 0 0  0.02315 0 0  0.0232 0 0  0.02325 0 0  0.0233 0 0  0.02335 0 0  0.0234 0 0  0.02345 0 0  0.0235 0 0  0.02355 0 0  0.0236 0 0  0.02365 0 0  0.0237 0 0  0.02375 0 0  0.0238 0 0  0.02385 0 0  0.0239 0 0  0.02395 0 0  0.024 0 0  0.02405 0 0  0.0241 0 0  0.02415 0 0  0.0242 0 0  0.02425 0 0  0.0243 0 0  0.02435 0 0  0.0244 0 0  0.02445 0 0  0.0245 0 0  0.02455 0 0  0.0246 0 0  0.02465 0 0  0.0247 0 0  0.02475 0 0  0.0248 0 0  0.02485 0 0  0.0249 0 0  0.02495 0 0  0.025 0 0  0.02505 0 0  0.0251 0 0  0.02515 0 0  0.0252 0 0  0.02525 0 0  0.0253 0 0  0.02535 0 0  0.0254 0 0  0.02545 0 0  0.0255 0 0  0.02555 0 0  0.0256 0 0  0.02565 0 0  0.0257 0 0  0.02575 0 0  0.0258 0 0  0.02585 0 0  0.0259 0 0  0.02595 0 0  0.026 0 0  0.02605 0 0  0.0261 0 0  0.02615 0 0  0.0262 0 0  0.02625 0 0  0.0263 0 0  0.02635 0 0  0.0264 0 0  0.02645 0 0  0.0265 0 0  0.02655 0 0  0.0266 0 0  0.02665 0 0  0.0267 0 0  0.02675 0 0  0.0268 0 0  0.02685 0 0  0.0269 0 0  0.02695 0 0  0.027 0 0  0.02705 0 0  0.0271 0 0  0.02715 0 0  0.0272 0 0  0.02725 0 0  0.0273 0 0  0.02735 0 0  0.0274 0 0  0.02745 0 0  0.0275 0 0  0.02755 0 0  0.0276 0 0  0.02765 0 0  0.0277 0 0  0.02775 0 0  0.0278 0 0  0.02785 0 0  0.0279 0 0  0.02795 0 0  0.028 0 0  0.02805 0 0  0.0281 0 0  0.02815 0 0  0.0282 0 0  0.02825 0 0  0.0283 0 0  0.02835 0 0  0.0284 0 0  0.02845 0 0  0.0285 0 0  0.02855 0 0  0.0286 0 0  0.02865 0 0  0.0287 0 0  0.02875 0 0  0.0288 0 0  0.02885 0 0  0.0289 0 0  0.02895 0 0  0.029 0 0  0.02905 0 0  0.0291 0 0  0.02915 0 0  0.0292 0 0  0.02925 0 0  0.0293 0 0  0.02935 0 0  0.0294 0 0  0.02945 0 0  0.0295 0 0  0.02955 0 0  0.0296 0 0  0.02965 0 0  0.0297 0 0  0.02975 0 0  0.0298 0 0  0.02985 0 0  0.0299 0 0  0.02995 0 0  0.03 0 0  0.03005 0 0  0.0301 0 0  0.03015 0 0  0.0302 0 0  0.03025 0 0  0.0303 0 0  0.03035 0 0  0.0304 0 0  0.03045 0 0  0.0305 0 0  0.03055 0 0  0.0306 0 0  0.03065 0 0  0.0307 0 0  0.03075 0 0  0.0308 0 0  0.03085 0 0  0.0309 0 0  0.03095 0 0  0.031 0 0  0.03105 0 0  0.0311 0 0  0.03115 0 0  0.0312 0 0  0.03125 0 0  0.0313 0 0  0.03135 0 0  0.0314 0 0  0.03145 0 0  0.0315 0 0  0.03155 0 0  0.0316 0 0  0.03165 0 0  0.0317 0 0  0.03175 0 0  0.0318 0 0  0.03185 0 0  0.0319 0 0  0.03195 0 0  0.032 0 0  0.03205 0 0  0.0321 0 0  0.03215 0 0  0.0322 0 0  0.03225 0 0  0.0323 0 0  0.03235 0 0  0.0324 0 0  0.03245 0 0  0.0325 0 0  0.03255 0 0  0.0326 0 0  0.03265 0 0  0.0327 0 0  0.03275 0 0  0.0328 0 0  0.03285 0 0  0.0329 0 0  0.03295 0 0  0.033 0 0  0.03305 0 0  0.0331 0 0  0.03315 0 0  0.0332 0 0  0.03325 0 0  0.0333 0 0  0.03335 0 0  0.0334 0 0  0.03345 0 0  0.0335 0 0  0.03355 0 0  0.0336 0 0  0.03365 0 0  0.0337 0 0  0.03375 0 0  0.0338 0 0  0.03385 0 0  0.0339 0 0  0.03395 0 0  0.034 0 0  0.03405 0 0  0.0341 0 0  0.03415 0 0  0.0342 0 0  0.03425 0 0  0.0343 0 0  0.03435 0 0  0.0344 0 0  0.03445 0 0  0.0345 0 0  0.03455 0 0  0.0346 0 0  0.03465 0 0  0.0347 0 0  0.03475 0 0  0.0348 0 0  0.03485 0 0  0.0349 0 0  0.03495 0 0  0.035 0 0  0.03505 0 0  0.0351 0 0  0.03515 0 0  0.0352 0 0  0.03525 0 0  0.0353 0 0  0.03535 0 0  0.0354 0 0  0.03545 0 0  0.0355 0 0  0.03555 0 0  0.0356 0 0  0.03565 0 0  0.0357 0 0  0.03575 0 0  0.0358 0 0  0.03585 0 0  0.0359 0 0  0.03595 0 0  0.036 0 0  0.03605 0 0  0.0361 0 0  0.03615 0 0  0.0362 0 0  0.03625 0 0  0.0363 0 0  0.03635 0 0  0.0364 0 0  0.03645 0 0  0.0365 0 0  0.03655 0 0  0.0366 0 0  0.03665 0 0  0.0367 0 0  0.03675 0 0  0.0368 0 0  0.03685 0 0  0.0369 0 0  0.03695 0 0  0.037 0 0  0.03705 0 0  0.0371 0 0  0.03715 0 0  0.0372 0 0  0.03725 0 0  0.0373 0 0  0.03735 0 0  0.0374 0 0  0.03745 0 0  0.0375 0 0  0.03755 0 0  0.0376 0 0  0.03765 0 0  0.0377 0 0  0.03775 0 0  0.0378 0 0  0.03785 0 0  0.0379 0 0  0.03795 0 0  0.038 0 0  0.03805 0 0  0.0381 0 0  0.0
[...]
<PointData  Scalars="f_13"> 
<DataArray  type="Float64"  Name="f_13"  format="ascii">1.1710276049303643e+128  5.0024646544492946e+123  2.1641673589507641e+123  1.2785795268879209e+123  8.6179214023306321e+122  6.2558977645155395e+122  4.7646778219656223e+122  3.7538449836664765e+122  3.0330999724648941e+122  2.4993337103349023e+122  2.0921881890374666e+122  1.7741783548236056e+122  1.5209092240025011e+122  1.3158901290532803e+122  1.1476171596385205e+122  1.0078494554783641e+122  8.9054830064366558e+121  7.9120105592424224e+121  7.0637724212982266e+121  6.3342936578226787e+121  5.7028662641813011e+121  5.1530975751735521e+121  4.6718702123036615e+121  4.2485847022340541e+121  3.8745997994570639e+121  3.5428133689064916e+121  3.2473446995538875e+121  2.9832910140547980e+121  2.7465389325482966e+121  2.5336171080593971e+121  2.3415800357646031e+121  2.1679156986087638e+121  2.0104716054923225e+121  1.8673951423435529e+121  1.7370851498317723e+121  1.6181523724333348e+121  1.5093869665657401e+121  1.4097316625254327e+121  1.3182594826409988e+121  1.2341551524872344e+121  1.1566995219746914e+121  1.0852564522673213e+121  1.0192617327734038e+121  9.5821367727583178e+120  9.0166511510492234e+120  8.4921654622480259e+120  8.0051027130977199e+120  7.5522534169111871e+120  7.1307320126396005e+120  6.7379391444784530e+120  6.3715289217006550e+120  6.0293804242429559e+120  5.7095728390465586e+120  5.4103637104177906e+120  5.1301698688028765e+120  4.8675506695946611e+120  4.6211932294872332e+120  4.3898993945313348e+120  4.1725742130798813e+120  3.9682157195897372e+120  3.7759058628496002e+120  3.5948024355183405e+120  3.4241318816052697e+120  3.2631828752945211e+120  3.1113005787961089e+120  2.9678814990963871e+120  2.8323688739125466e+120  2.7042485261036744e+120  2.5830451334837556e+120  2.4683188676105256e+120  2.3596623608476472e+120  2.2566979659503695e+120  2.1590752767190842e+120  2.0664688819957431e+120  1.9785763285254014e+120  1.8951162710366984e+120  1.8158267903689610e+120  1.7404638626384191e+120  1.6687999643338517e+120  1.6006227998984406e+120  1.5357341398202240e+120  1.4739487585446094e+120  1.4150934626615202e+120  1.3590062008260758e+120  1.3055352477622968e+120  1.2545384554884036e+120  1.2058825656024941e+120  1.1594425770895186e+120  1.1151011646640360e+120  1.0727481431563323e+120  1.0322799738893550e+120  9.9359930938673266e+119  9.5661457310340029e+119  9.2123957118476691e+119  8.8739313354220254e+119  8.5499878178542639e+119  8.2398442177951243e+119  7.9428205879844375e+119  7.6582753343096658e+119  7.3856027656011521e+119  7.1242308188721207e+119  6.8736189460599388e+119  6.6332561495443743e+119  6.4026591548213193e+119  6.1813707097086741e+119  5.9689580003662128e+119  5.7650111752317562e+119  5.5691419687211507e+119  5.3809824172167463e+119  5.2001836604846343e+119  5.0264148222212667e+119  4.8593619639407399e+119  4.6987271068792344e+119  4.5442273170176013e+119  4.3955938487109267e+119  4.2525713427679077e+119  4.1149170751468287e+119  3.9824002527312470e+119  3.8548013529199944e+119  3.7319115040145974e+119  3.6135319036154725e+119  3.4994732724473196e+119  3.3895553412264612e+119  3.2836063683592811e+119  3.1814626864232729e+119  3.0829682755316280e+119  2.9879743618196674e+119  2.8963390394180976e+119  2.8079269143948119e+119  2.7226087692545692e+119  2.6402612466852031e+119  2.5607665513308066e+119  2.4840121684569819e+119  2.4098905984515911e+119  2.3382991061769130e+119  2.2691394842561088e+119  2.2023178294389670e+119  2.1377443312493779e+119  2.0753330721703033e+119  2.0150018386713497e+119  1.9566719424299795e+119  1.9002680511398711e+119  1.8457180283394694e+119  1.7929527817305224e+119  1.7419061194904430e+119  1.6925146141141777e+119  1.6447174733506940e+119  1.5984564178267346e+119  1.5536755649761061e+119  1.5103213189165538e+119  1.4683422659385482e+119  1.4276890752910446e+119  1.3883144049685632e+119  1.3501728122220441e+119  1.3132206685327346e+119  1.2774160788041195e+119  1.2427188045416006e+119  1.2090901908034158e+119  1.1764930967190750e+119  1.1448918293836783e+119  1.1142520809476887e+119  1.0845408687323078e+119  1.0557264782104346e+119  1.0277784087024598e+119  1.0006673216447935e+119  9.7436499129716172e+118  9.4884425776231386e+118  9.2407898219895016e+118  9.0004400411537100e+118  8.7671510063765769e+118  8.5406894765211252e+118  8.3208308272723809e+118  8.1073586972576828e+118  7.9000646502217145e+118  7.6987478524566558e+118  7.5032147647313015e+118  7.3132788480039469e+118  7.1287602822421662e+118  6.9494856977091069e+118  6.7752879181098569e+118  6.6060057150236701e+118  6.4414835730782210e+118  6.2815714653505691e+118  6.1261246385063942e+118  5.9750034072146692e+118  5.8280729573987800e+118  5.6852031579078230e+118  5.5462683802130925e+118  5.4111473257551193e+118  5.2797228605854190e+118  5.1518818569654618e+118  5.0275150416021504e+118  4.9065168502152608e+118  4.7887852881475334e+118  4.6742217967425490e+118  4.5627311252289855e+118  4.4542212078629630e+118  4.3486030460922189e+118  4.2457905955174016e+118  4.1457006574368800e+118  4.0482527747715922e+118  3.9533691321765063e+118  3.8609744601544204e+118  3.7709959429966491e+118  3.6833631303836380e+118  3.5980078524863419e+118  3.5148641384167773e+118  3.4338681378833406e+118  3.3549580459131745e+118  3.2780740305103843e+118  3.2031581631249225e+118  3.1301543518128618e+118  3.0590082769741798e+118  2.9896673295595090e+118  2.9220805516421873e+118  2.8561985792567475e+118  2.7919735874094376e+118  2.7293592371706254e+118  2.6683106247630531e+118  2.6087842325637210e+118  2.5507378819409012e+118  2.4941306878512339e+118  2.4389230151252447e+118  2.3850764363727321e+118  2.3325536914425487e+118  2.2813186483741551e+118  2.2313362657810491e+118  2.1825725566088078e+118  2.1349945532129457e+118  2.0885702737041715e+118  2.0432686895109030e+118  1.9990596941110216e+118  1.9559140728869102e+118  1.9138034740598115e+118  1.8727003806613625e+118  1.8325780835019720e+118  1.7934106550974219e+118  1.7551729245166525e+118  1.7178404531153103e+118  1.6813895111210384e+118  1.6457970550379568e+118  1.6110407058391333e+118  1.5770987279171008e+118  1.5439500087637189e+118  1.5115740393518891e+118  1.4799508951927069e+118  1.4490612180427461e+118  1.4188861982371879e+118  1.3894075576254902e+118  1.3606075330872208e+118  1.3324688606066083e+118  1.3049747598852020e+118  1.2781089194728410e+118  1.2518554823979645e+118  1.2261990322790097e+118  1.2011245798993759e+118  1.1766175502291410e+118  1.1526637698773553e+118  1.1292494549593709e+118  1.1063611993643038e+118  1.0839859634082681e+118  1.0621110628595929e+118  1.0407241583227768e+118  1.0198132449684240e+118  9.9936664259692258e+117  9.7937298602407405e+117  9.5982121577733501e+117  9.4070056909177862e+117  9.2200057119528135e+117  9.0371102687284338e+117  8.8582201230034057e+117  8.6832386713835505e+117  8.5120718687709251e+117  8.3446281542372389e+117  8.1808183792382901e+117  8.0205557380890167e+117  7.8637557006219974e+117  7.7103359469549015e+117  7.5602163042952645e+117  7.4133186857135125e+117  7.2695670308177420e+117  7.1288872482661113e+117  6.9912071600551776e+117  6.8564564475246056e+117  6.7245665990209045e+117  6.5954708591649258e+117  6.4691041796697265e+117  6.3454031716576579e+117  6.2243060594268409e+117  6.1057526356194624e+117  5.9896842177457246e+117  5.8760436060190585e+117  5.7647750424596676e+117  5.6558241712251435e+117  5.5491380001281822e+117  5.4446648633029382e+117  5.3423543849828444e+117  5.2421574443540957e+117  5.1440261414501139e+117  5.0479137640536957e+117  4.9537747555744870e+117  4.8615646838707347e+117  4.7712402109852335e+117  4.6827590637664193e+117  4.5960800053466064e+117  4.5111628074502497e+117  4.4279682235061554e+117  4.3464579625382983e+117  4.2665946638109104e+117  4.1883418722041571e+117  4.1116640142977283e+117  4.0365263751402549e+117  3.9628950756833037e+117  3.8907370508593290e+117  3.8200200282837764e+117  3.7507125075620312e+117  3.6827837401827187e+117  3.6162037099792979e+117  3.5509431141426300e+117  3.4869733447677262e+117  3.4242664709183618e+117  3.3627952211939312e+117  3.3025329667832558e+117  3.2434537049906989e+117  3.1855320432203201e+117  3.1287431834043031e+117  3.0730629068623943e+117  3.0184675595793577e+117  2.9649340378880755e+117  2.9124397745461555e+117  2.8609627251943495e+117  2.8104813551855495e+117  2.7609746267733006e+117  2.7124219866493223e+117  2.6648033538196939e+117  2.6180991078098052e+117  2.5722900771884533e+117  2.5273575284017217e+117  2.4832831549076524e+117  2.4400490666029064e+117  2.3976377795330187e+117  2.3560322058779656e+117  2.3152156442051139e+117  2.2751717699818994e+117  2.2358846263406442e+117  2.1973386150884064e+117  2.1595184879547740e+117  2.1224093380708242e+117  2.0859965916726728e+117  2.0502660000231933e+117  2.0152036315457678e+117  1.9807958641640068e+117  1.9470293778416585e+117  1.9138911473170673e+117  1.8813684350266812e+117  1.8494487842123373e+117  1.8181200122071277e+117  1.7873702038949304e+117  1.7571877053386919e+117  1.7275611175727941e+117  1.6984792905549725e+117  1.6699313172733251e+117  1.6419065280041525e+117  1.6143944847164521e+117  1.5873849756190447e+117  1.5608680098464068e+117  1.5348338122793853e+117  1.5092728184971640e+117  1.4841756698568327e+117  1.4595332086971092e+117  1.4353364736628670e+117  1.4115766951471395e+117  1.3882452908474624e+117  1.3653338614334309e+117  1.3428341863225248e+117  1.3207382195612269e+117  1.2990380858086406e+117  1.2777260764198716e+117  1.2567946456264630e+117  1.2362364068113548e+117  1.2160441288757841e+117  1.1962107326957300e+117  1.1767292876655158e+117  1.1575930083262437e+117  1.1387952510768502e+117  1.1203295109655704e+117  1.1021894185597296e+117  1.0843687368917762e+117  1.0668613584795661e+117  1.0496613024189742e+117  1.0327627115469138e+117  1.0161598496729557e+117  9.9984709887774475e+116  9.8381895687648568e+116  9.6807003444582479e+116  9.5259505291245979e+116  9.3738884170192231e+116  9.2244633594594675e+116  9.0776257414693714e+116  8.9333269589807887e+116  8.7915193965763673e+116  8.6521564057609331e+116  8.5151922837474324e+116  8.3805822527446224e+116  8.2482824397335577e+116  8.1182498567205912e+116  7.9904423814547746e+116  7.8648187385978637e+116  7.7413384813356838e+116  7.6199619734195344e+116  7.5006503716269301e+116  7.3833656086312279e+116  7.2680703762696783e+116  7.1547281092002353e+116  7.0433029689371828e+116  6.9337598282561984e+116  6.8260642559598168e+116  6.7201825019941482e+116  6.6160814829083126e+116  6.5137287676479389e+116  6.4130925636747183e+116  6.3141417034037834e+116  6.2168456309511495e+116  6.1211743891836721e+116  6.0270986070640082e+116  5.9345894872834721e+116  5.8436187941756700e+116  5.7541588419040995e+116  5.6661824829170582e+116  5.5796630966633429e+116  5.4945745785624953e+116  5.4108913292232746e+116  5.3285882439045412e+116  5.2476407022125975e+116  5.1680245580292782e+116  5.0897161296653517e+116  5.0126921902336968e+116  4.9369299582371076e+116  4.8624070883654927e+116  4.7891016624975381e+116  4.7169921809019494e+116  4.6460575536335013e+116  4.5762770921192920e+116  4.5076305009306874e+116  4.4400978697365436e+116  4.3736596654334932e+116  4.3082967244489776e+116  4.2439902452131395e+116  4.1807217807954254e+116  4.1184732317022122e+116  4.0572268388315069e+116  3.9969651765811705e+116  3.9376711461070789e+116  3.8793279687275965e+116  3.8219191794711449e+116  3.7654286207633947e+116  3.7098404362508801e+116  3.6551390647579524e+116  3.6013092343738463e+116  3.5483359566670110e+116  3.4962045210236501e+116  3.4449004891076664e+116  3.3944096894392416e+116  3.3447182120892749e+116  3.2958124034870738e+116  3.2476788613386913e+116  3.2003044296533953e+116  3.1536761938757717e+116  3.1077814761210910e+116  3.0626078305115977e+116  3.0181430386113956e+116  2.9743751049577641e+116  2.9312922526866352e+116  2.8888829192501559e+116  2.8471357522243116e+116  2.8060396052044543e+116  2.7655835337868974e+116  2.7257567916345641e+116  2.6865488266248117e+116  2.6479492770776546e+116  2.6099479680624951e+116  2.5725349077817148e+116  2.5357002840293251e+116  2.4994344607230868e+116  2.4637279745084061e+116  2.4285715314324483e+116  2.3939560036869223e+116  2.3598724264179823e+116  2.3263119946018224e+116  2.2932660599844703e+116  2.2607261280843767e+116  2.2286838552564536e+116  2.1971310458161613e+116  2.1660596492224012e+116  2.1354617573178406e+116  2.1053296016255082e+116  2.0756555507003594e+116  2.0464321075346475e+116  2.0176519070159567e+116  1.9893077134366972e+116  1.9613924180540007e+116  1.9338990366988942e+116  1.9068207074336982e+116  1.8801506882566218e+116  1.8538823548525044e+116  1.8280091983887622e+116  1.8025248233555185e+116  1.7774229454489910e+116  1.7526973894972451e+116  1.7283420874273276e+116  1.7043510762729854e+116  1.6807184962220410e+116  1.6574385887026067e+116  1.6345056945073134e+116  1.6119142519547393e+116  1.5896587950872657e+116  1.5677339519045520e+116  1.5461344426319320e+116  1.5248550780229450e+116  1.5038907576953029e+116  1.4832364684996057e+116  1.4628872829200832e+116  1.4428383575067258e+116  1.4230849313381160e+116  1.4036223245143361e+116  1.3844459366793305e+116  1.3655512455720800e+116  1.3469338056060255e+116  1.3285892464761109e+116  1.3105132717929179e+116  1.2927016577432934e+116  1.2751502517769281e+116  1.2578549713183774e+116  1.2408118025039484e+116  1.2240167989429940e+116  1.2074660805030726e+116  1.1911558321184961e+116  1.1750823026217909e+116  1.1592418035975874e+116  1.1436307082584968e+116  1.1282454503425096e+116  1.1130825230314791e+116  1.0981384778902752e+116  1.0834099238261556e+116  1.0688935260679796e+116  1.0545860051648295e+116  1.0404841360036705e+116  1.0265847468456488e+116  1.0128847183806462e+116  9.9938098279974425e+115  9.8607052288520877e+115  9.7295037111766691e+115  9.6001760880010954e+115  9.4726936519838823e+115  9.3470281669788760e+115  9.2231518597602788e+115  9.1010374119029864e+115  8.9806579518149618e+115  8.8619870469187781e+115  8.7449986959792539e+115  8.6296673215742192e+115  8.5159677627057894e+115  8.4038752675490173e+115  8.2933654863355255e+115  8.1844144643692422e+115  8.0769986351716380e+115  7.9710948137540542e+115  7.8666801900144041e+115  7.7637323222559614e+115  7.6622291308257262e+115  7.5621488918700596e+115  7.4634702312053450e+115  7.3661721183012717e+115  7.2702338603746652e+115  7.1756350965916147e+115  7.0823557923758838e+115  6.9903762338214313e+115  6.8996770222070103e+115  6.8102390686109878e+115  6.7220435886242198e+115  6.6350720971593344e+115  6.5493064033543294e+115  6.4647286055687581e+115  6.3813210864707472e+115  6.2990665082129932e+115  6.2179478076961270e+115  6.1379481919176690e+115  6.0590511334049506e+115  5.9812403657304733e+115  5.9044998791079826e+115  5.8288139160678350e+115  5.7541669672100002e+115  5.6805437670334043e+115  5.6079292898399619e+115  5.5363087457119810e+115  5.4656675765615579e+115  5.3959914522504628e+115  5.3272662667793516e+115  5.2594781345448534e+115  5.1926133866632752e+115  5.1266585673597466e+115  5.0616004304214077e+115  4.9974259357136073e+115  4.9341222457577266e+115  4.8716767223696920e+115  4.8100769233578480e+115  4.7493105992791371e+115  4.6893656902525379e+115  4.6302303228285602e+115  4.5718928069139409e+115  4.5143416327503269e+115  4.4575654679459896e+115  4.4015531545596724e+115  4.3462937062354321e+115  4.2917763053876733e+115  4.2379903004353566e+115  4.1849252030844961e+115  4.1325706856580692e+115  4.0809165784723861e+115  4.0299528672591552e+115  3.9796696906323123e+115  3.9300573375988604e+115  3.8811062451128617e+115  3.8328069956717654e+115  3.7851503149543605e+115  3.7381270694995412e+115  3.6917282644251453e+115  3.6459450411861218e+115  3.6007686753713188e+115  3.5561905745381507e+115  3.5122022760845501e+115  3.4687954451573874e+115  3.4259618725967776e+115  3.3836934729156203e+115  3.3419822823136760e+115  3.3008204567256315e+115  3.2602002699024503e+115  3.2201141115254918e+115  3.1805544853527125e+115  3.1415140073964291e+115  3.1029854041320906e+115  3.0649615107374234e+115  3.0274352693614844e+115  2.9903997274229891e+115  2.9538480359375339e+115  2.9177734478729985e+115  2.8821693165328008e+115  2.8470290939664031e+115  2.8123463294065831e+115  2.7781146677330706e+115  2.7443278479619714e+115  2.7109797017605921e+115  2.6780641519871911e+115  2.6455752112551846e+115  2.6135069805214438e+115  2.5818536476981685e+115  2.5506094862879658e+115  2.5197688540417353e+115  2.4893261916388866e+115  2.4592760213896064e+115  2.4296129459586742e+115  2.4003316471105130e+115  2.3714268844750742e+115  2.3428934943341853e+115  2.3147263884280379e+115  2.2869205527814038e+115  2.2594710465492815e+115  2.2323730008816055e+115  2.2056216178066764e+115  2.1792121691330337e+115  2.1531399953693863e+115  2.1274005046623188e+115  2.1019891717514608e+115  2.0769015369417904e+115  2.0521332050928348e+115  2.0276798446243898e+115  2.0035371865385443e+115  1.9797010234576642e+115  1.9561672086781355e+115  1.9329316552395041e+115  1.9099903350088072e+115  1.8873392777798330e+115  1.8649745703869948e+115  1.8428923558336531e+115  1.8210888324345585e+115  1.7995602529722024e+115  1.7783029238668630e+115  1.7573132043600523e+115  1.7365875057112008e+115  1.7161222904072917e+115  1.6959140713852670e+115  1.6759594112669713e+115  1.6562549216063908e+115  1.6367972621490503e+115  1.6175831401032721e+115  1.5986093094231611e+115  1.5798725701030905e+115  1.5613697674834760e+115  1.5430977915676957e+115  1.5250535763499096e+115  1.5072340991536360e+115  1.4896363799808828e+115  1.4722574808716423e+115  1.4550945052736253e+115  1.4381445974219969e+115  1.4214049417289938e+115  1.4048727621832132e+115  1.3885453217584755e+115  1.3724199218320276e+115  1.3564939016119653e+115  1.3407646375737295e+115  1.3252295429054972e+115  1.3098860669623491e+115  1.2947316947290295e+115  1.2797639462911926e+115  1.2649803763149638e+115  1.2503785735346941e+115  1.2359561602487708e+115  1.2217107918233340e+115  1.2076401562037883e+115  1.1937419734339801e+115  1.1800139951828730e+115  1.1664540042786605e+115  1.1530598142501463e+115  1.1398292688752832e+115  1.1267602417367610e+115  1.1138506357845089e+115  1.1010983829050330e+115  1.0885014434974240e+115  1.0760578060559743e+115  1.0637654867592749e+115  1.0516225290656689e+115  1.0396270033149979e+115  1.0277770063364984e+115  1.0160706610627651e+115  1.0045061161496910e+115  9.9308154560225649e+114  9.8179514840611213e+114  9.7064514816482458e+114  9.5962979274271278e+114  9.4874735391317572e+114  9.3799612701243190e+114  9.2737443059856830e+114  9.1688060611581993e+114  9.0651301756399794e+114  8.9627005117297583e+114  8.8615011508216443e+114  8.7615163902487196e+114  8.6627307401749525e+114  8.5651289205344990e+114  8.4686958580175877e+114  8.3734166831024551e+114  8.2792767271322810e+114  8.1862615194366518e+114  8.0943567844967126e+114  8.0035484391533084e+114  7.9138225898575482e+114  7.8251655299628774e+114  7.7375637370582447e+114  7.6510038703415150e+114  7.5654727680325642e+114  7.4809574448254918e+114  7.3974450893791499e+114  7.3149230618455256e+114  7.2333788914353480e+114  7.1528002740202535e+114  7.0731750697710242e+114  6.9944913008312454e+114  6.9167371490259155e+114  6.8399009536042485e+114  6.7639712090164892e+114  6.6889365627237904e+114  6.6147858130409246e+114  6.5415079070111837e+114  6.4690919383129526e+114  6.3975271451975662e+114  6.3268029084578200e+114  6.2569087494266898e+114  6.1878343280058922e+114  6.1195694407236039e+114  6.0521040188211347e+114  5.9854281263678915e+114  5.9195319584042894e+114  5.8544058391121855e+114  5.7900402200122764e+114  5.7264256781882837e+114  5.6635529145372256e+114  5.6014127520455626e+114  5.5399961340907359e+114  5.4792941227677089e+114  5.4192978972401578e+114  5.3599987521158907e+114  5.3013880958461046e+114  5.2434574491481940e+114  5.1861984434515983e+114  5.1296028193665176e+114  5.0736624251749