<?xml version="1.0"?>
<VTKFile type="UnstructuredGrid"  version="0.1"  >
<UnstructuredGrid>
<Piece  NumberOfPoints="20001" NumberOfCells="20000">
<Points>
<DataArray  type="Float64"  NumberOfComponents="3"  format="ascii">0 0 0  5e-05 0 0  0.0001 0 0  0.00015 0 0  0.0002 0 0  0.00025 0 0  0.0003 0 0  0.00035 0 0  0.0004 0 0  0.00045 0 0  0.0005 0 0  0.00055 0 0  0.0005999999999999999 0 0  0.00065 0 0  0.0007 0 0  0.00075 0 0  0.0008 0 0  0.00085 0 0  0.0009 0 0  0.00095 0 0  0.001 0 0  0.00105 0 0  0.0011 0 0  0.00115 0 0  0.0012 0 0  0.00125 0 0  0.0013 0 0  0.00135 0 0  0.0014 0 0  0.00145 0 0  0.0015 0 0  0.00155 0 0  0.0016 0 0  0.00165 0 0  0.0017 0 0  0.00175 0 0  0.0018 0 0  0.00185 0 0  0.0019 0 0  0.00195 0 0  0.002 0 0  0.00205 0 0  0.0021 0 0  0.00215 0 0  0.0022 0 0  0.00225 0 0  0.0023 0 0  0.00235 0 0  0.0024 0 0  0.00245 0 0  0.0025 0 0  0.00255 0 0  0.0026 0 0  0.00265 0 0  0.0027 0 0  0.00275 0 0  0.0028 0 0  0.00285 0 0  0.0029 0 0  0.00295 0 0  0.003 0 0  0.00305 0 0  0.0031 0 0  0.00315 0 0  0.0032 0 0  0.00325 0 0  0.0033 0 0  0.00335 0 0  0.0034 0 0  0.00345 0 0  0.0035 0 0  0.00355 0 0  0.0036 0 0  0.00365 0 0  0.0037 0 0  0.00375 0 0  0.0038 0 0  0.00385 0 0  0.0039 0 0  0.00395 0 0  0.004 0 0  0.00405 0 0  0.0041 0 0  0.00415 0 0  0.0042 0 0  0.00425 0 0  0.0043 0 0  0.00435 0 0  0.0044 0 0  0.00445 0 0  0.0045 0 0  0.00455 0 0  0.0046 0 0  0.00465 0 0  0.0047 0 0  0.00475 0 0  0.0048 0 0  0.00485 0 0  0.0049 0 0  0.00495 0 0  0.005 0 0  0.00505 0 0  0.0051 0 0  0.00515 0 0  0.0052 0 0  0.00525 0 0  0.0053 0 0  0.00535 0 0  0.0054 0 0  0.00545 0 0  0.0055 0 0  0.00555 0 0  0.0056 0 0  0.00565 0 0  0.0057 0 0  0.00575 0 0  0.0058 0 0  0.00585 0 0  0.0059 0 0  0.00595 0 0  0.006 0 0  0.00605 0 0  0.0061 0 0  0.00615 0 0  0.0062 0 0  0.00625 0 0  0.0063 0 0  0.00635 0 0  0.0064 0 0  0.00645 0 0  0.0065 0 0  0.00655 0 0  0.0066 0 0  0.00665 0 0  0.0067 0 0  0.00675 0 0  0.0068 0 0  0.00685 0 0  0.0069 0 0  0.00695 0 0  0.007 0 0  0.00705 0 0  0.0071 0 0  0.00715 0 0  0.0072 0 0  0.00725 0 0  0.0073 0 0  0.00735 0 0  0.0074 0 0  0.00745 0 0  0.0075 0 0  0.00755 0 0  0.0076 0 0  0.00765 0 0  0.0077 0 0  0.00775 0 0  0.0078 0 0  0.007849999999999999 0 0  0.007900000000000001 0 0  0.00795 0 0  0.008 0 0  0.00805 0 0  0.0081 0 0  0.008149999999999999 0 0  0.008200000000000001 0 0  0.00825 0 0  0.0083 0 0  0.00835 0 0  0.008399999999999999 0 0  0.008449999999999999 0 0  0.008500000000000001 0 0  0.00855 0 0  0.0086 0 0  0.00865 0 0  0.008699999999999999 0 0  0.008750000000000001 0 0  0.008800000000000001 0 0  0.00885 0 0  0.0089 0 0  0.00895 0 0  0.008999999999999999 0 0  0.009050000000000001 0 0  0.0091 0 0  0.00915 0 0  0.0092 0 0  0.00925 0 0  0.009299999999999999 0 0  0.009350000000000001 0 0  0.0094 0 0  0.00945 0 0  0.0095 0 0  0.009549999999999999 0 0  0.009599999999999999 0 0  0.009650000000000001 0 0  0.0097 0 0  0.00975 0 0  0.0098 0 0  0.009849999999999999 0 0  0.009900000000000001 0 0  0.009950000000000001 0 0  0.01 0 0  0.01005 0 0  0.0101 0 0  0.01015 0 0  0.0102 0 0  0.01025 0 0  0.0103 0 0  0.01035 0 0  0.0104 0 0  0.01045 0 0  0.0105 0 0  0.01055 0 0  0.0106 0 0  0.01065 0 0  0.0107 0 0  0.01075 0 0  0.0108 0 0  0.01085 0 0  0.0109 0 0  0.01095 0 0  0.011 0 0  0.01105 0 0  0.0111 0 0  0.01115 0 0  0.0112 0 0  0.01125 0 0  0.0113 0 0  0.01135 0 0  0.0114 0 0  0.01145 0 0  0.0115 0 0  0.01155 0 0  0.0116 0 0  0.01165 0 0  0.0117 0 0  0.01175 0 0  0.0118 0 0  0.01185 0 0  0.0119 0 0  0.01195 0 0  0.012 0 0  0.01205 0 0  0.0121 0 0  0.01215 0 0  0.0122 0 0  0.01225 0 0  0.0123 0 0  0.01235 0 0  0.0124 0 0  0.01245 0 0  0.0125 0 0  0.01255 0 0  0.0126 0 0  0.01265 0 0  0.0127 0 0  0.01275 0 0  0.0128 0 0  0.01285 0 0  0.0129 0 0  0.01295 0 0  0.013 0 0  0.01305 0 0  0.0131 0 0  0.01315 0 0  0.0132 0 0  0.01325 0 0  0.0133 0 0  0.01335 0 0  0.0134 0 0  0.01345 0 0  0.0135 0 0  0.01355 0 0  0.0136 0 0  0.01365 0 0  0.0137 0 0  0.01375 0 0  0.0138 0 0  0.01385 0 0  0.0139 0 0  0.01395 0 0  0.014 0 0  0.01405 0 0  0.0141 0 0  0.01415 0 0  0.0142 0 0  0.01425 0 0  0.0143 0 0  0.01435 0 0  0.0144 0 0  0.01445 0 0  0.0145 0 0  0.01455 0 0  0.0146 0 0  0.01465 0 0  0.0147 0 0  0.01475 0 0  0.0148 0 0  0.01485 0 0  0.0149 0 0  0.01495 0 0  0.015 0 0  0.01505 0 0  0.0151 0 0  0.01515 0 0  0.0152 0 0  0.01525 0 0  0.0153 0 0  0.01535 0 0  0.0154 0 0  0.01545 0 0  0.0155 0 0  0.01555 0 0  0.0156 0 0  0.01565 0 0  0.0157 0 0  0.01575 0 0  0.0158 0 0  0.01585 0 0  0.0159 0 0  0.01595 0 0  0.016 0 0  0.01605 0 0  0.0161 0 0  0.01615 0 0  0.0162 0 0  0.01625 0 0  0.0163 0 0  0.01635 0 0  0.0164 0 0  0.01645 0 0  0.0165 0 0  0.01655 0 0  0.0166 0 0  0.01665 0 0  0.0167 0 0  0.01675 0 0  0.0168 0 0  0.01685 0 0  0.0169 0 0  0.01695 0 0  0.017 0 0  0.01705 0 0  0.0171 0 0  0.01715 0 0  0.0172 0 0  0.01725 0 0  0.0173 0 0  0.01735 0 0  0.0174 0 0  0.01745 0 0  0.0175 0 0  0.01755 0 0  0.0176 0 0  0.01765 0 0  0.0177 0 0  0.01775 0 0  0.0178 0 0  0.01785 0 0  0.0179 0 0  0.01795 0 0  0.018 0 0  0.01805 0 0  0.0181 0 0  0.01815 0 0  0.0182 0 0  0.01825 0 0  0.0183 0 0  0.01835 0 0  0.0184 0 0  0.01845 0 0  0.0185 0 0  0.01855 0 0  0.0186 0 0  0.01865 0 0  0.0187 0 0  0.01875 0 0  0.0188 0 0  0.01885 0 0  0.0189 0 0  0.01895 0 0  0.019 0 0  0.01905 0 0  0.0191 0 0  0.01915 0 0  0.0192 0 0  0.01925 0 0  0.0193 0 0  0.01935 0 0  0.0194 0 0  0.01945 0 0  0.0195 0 0  0.01955 0 0  0.0196 0 0  0.01965 0 0  0.0197 0 0  0.01975 0 0  0.0198 0 0  0.01985 0 0  0.0199 0 0  0.01995 0 0  0.02 0 0  0.02005 0 0  0.0201 0 0  0.02015 0 0  0.0202 0 0  0.02025 0 0  0.0203 0 0  0.02035 0 0  0.0204 0 0  0.02045 0 0  0.0205 0 0  0.02055 0 0  0.0206 0 0  0.02065 0 0  0.0207 0 0  0.02075 0 0  0.0208 0 0  0.02085 0 0  0.0209 0 0  0.02095 0 0  0.021 0 0  0.02105 0 0  0.0211 0 0  0.02115 0 0  0.0212 0 0  0.02125 0 0  0.0213 0 0  0.02135 0 0  0.0214 0 0  0.02145 0 0  0.0215 0 0  0.02155 0 0  0.0216 0 0  0.02165 0 0  0.0217 0 0  0.02175 0 0  0.0218 0 0  0.02185 0 0  0.0219 0 0  0.02195 0 0  0.022 0 0  0.02205 0 0  0.0221 0 0  0.02215 0 0  0.0222 0 0  0.02225 0 0  0.0223 0 0  0.02235 0 0  0.0224 0 0  0.02245 0 0  0.0225 0 0  0.02255 0 0  0.0226 0 0  0.02265 0 0  0.0227 0 0  0.02275 0 0  0.0228 0 0  0.02285 0 0  0.0229 0 0  0.02295 0 0  0.023 0 0  0.02305 0 0  0.0231 0 0  0.02315 0 0  0.0232 0 0  0.02325 0 0  0.0233 0 0  0.02335 0 0  0.0234 0 0  0.02345 0 0  0.0235 0 0  0.02355 0 0  0.0236 0 0  0.02365 0 0  0.0237 0 0  0.02375 0 0  0.0238 0 0  0.02385 0 0  0.0239 0 0  0.02395 0 0  0.024 0 0  0.02405 0 0  0.0241 0 0  0.02415 0 0  0.0242 0 0  0.02425 0 0  0.0243 0 0  0.02435 0 0  0.0244 0 0  0.02445 0 0  0.0245 0 0  0.02455 0 0  0.0246 0 0  0.02465 0 0  0.0247 0 0  0.02475 0 0  0.0248 0 0  0.02485 0 0  0.0249 0 0  0.02495 0 0  0.025 0 0  0.02505 0 0  0.0251 0 0  0.02515 0 0  0.0252 0 0  0.02525 0 0  0.0253 0 0  0.02535 0 0  0.0254 0 0  0.02545 0 0  0.0255 0 0  0.02555 0 0  0.0256 0 0  0.02565 0 0  0.0257 0 0  0.02575 0 0  0.0258 0 0  0.02585 0 0  0.0259 0 0  0.02595 0 0  0.026 0 0  0.02605 0 0  0.0261 0 0  0.02615 0 0  0.0262 0 0  0.02625 0 0  0.0263 0 0  0.02635 0 0  0.0264 0 0  0.02645 0 0  0.0265 0 0  0.02655 0 0  0.0266 0 0  0.02665 0 0  0.0267 0 0  0.02675 0 0  0.0268 0 0  0.02685 0 0  0.0269 0 0  0.02695 0 0  0.027 0 0  0.02705 0 0  0.0271 0 0  0.02715 0 0  0.0272 0 0  0.02725 0 0  0.0273 0 0  0.02735 0 0  0.0274 0 0  0.02745 0 0  0.0275 0 0  0.02755 0 0  0.0276 0 0  0.02765 0 0  0.0277 0 0  0.02775 0 0  0.0278 0 0  0.02785 0 0  0.0279 0 0  0.02795 0 0  0.028 0 0  0.02805 0 0  0.0281 0 0  0.02815 0 0  0.0282 0 0  0.02825 0 0  0.0283 0 0  0.02835 0 0  0.0284 0 0  0.02845 0 0  0.0285 0 0  0.02855 0 0  0.0286 0 0  0.02865 0 0  0.0287 0 0  0.02875 0 0  0.0288 0 0  0.02885 0 0  0.0289 0 0  0.02895 0 0  0.029 0 0  0.02905 0 0  0.0291 0 0  0.02915 0 0  0.0292 0 0  0.02925 0 0  0.0293 0 0  0.02935 0 0  0.0294 0 0  0.02945 0 0  0.0295 0 0  0.02955 0 0  0.0296 0 0  0.02965 0 0  0.0297 0 0  0.02975 0 0  0.0298 0 0  0.02985 0 0  0.0299 0 0  0.02995 0 0  0.03 0 0  0.03005 0 0  0.0301 0 0  0.03015 0 0  0.0302 0 0  0.03025 0 0  0.0303 0 0  0.03035 0 0  0.0304 0 0  0.03045 0 0  0.0305 0 0  0.03055 0 0  0.0306 0 0  0.03065 0 0  0.0307 0 0  0.03075 0 0  0.0308 0 0  0.03085 0 0  0.0309 0 0  0.03095 0 0  0.031 0 0  0.03105 0 0  0.0311 0 0  0.03115 0 0  0.0312 0 0  0.03125 0 0  0.0313 0 0  0.03135 0 0  0.0314 0 0  0.03145 0 0  0.0315 0 0  0.03155 0 0  0.0316 0 0  0.03165 0 0  0.0317 0 0  0.03175 0 0  0.0318 0 0  0.03185 0 0  0.0319 0 0  0.03195 0 0  0.032 0 0  0.03205 0 0  0.0321 0 0  0.03215 0 0  0.0322 0 0  0.03225 0 0  0.0323 0 0  0.03235 0 0  0.0324 0 0  0.03245 0 0  0.0325 0 0  0.03255 0 0  0.0326 0 0  0.03265 0 0  0.0327 0 0  0.03275 0 0  0.0328 0 0  0.03285 0 0  0.0329 0 0  0.03295 0 0  0.033 0 0  0.03305 0 0  0.0331 0 0  0.03315 0 0  0.0332 0 0  0.03325 0 0  0.0333 0 0  0.03335 0 0  0.0334 0 0  0.03345 0 0  0.0335 0 0  0.03355 0 0  0.0336 0 0  0.03365 0 0  0.0337 0 0  0.03375 0 0  0.0338 0 0  0.03385 0 0  0.0339 0 0  0.03395 0 0  0.034 0 0  0.03405 0 0  0.0341 0 0  0.03415 0 0  0.0342 0 0  0.03425 0 0  0.0343 0 0  0.03435 0 0  0.0344 0 0  0.03445 0 0  0.0345 0 0  0.03455 0 0  0.0346 0 0  0.03465 0 0  0.0347 0 0  0.03475 0 0  0.0348 0 0  0.03485 0 0  0.0349 0 0  0.03495 0 0  0.035 0 0  0.03505 0 0  0.0351 0 0  0.03515 0 0  0.0352 0 0  0.03525 0 0  0.0353 0 0  0.03535 0 0  0.0354 0 0  0.03545 0 0  0.0355 0 0  0.03555 0 0  0.0356 0 0  0.03565 0 0  0.0357 0 0  0.03575 0 0  0.0358 0 0  0.03585 0 0  0.0359 0 0  0.03595 0 0  0.036 0 0  0.03605 0 0  0.0361 0 0  0.03615 0 0  0.0362 0 0  0.03625 0 0  0.0363 0 0  0.03635 0 0  0.0364 0 0  0.03645 0 0  0.0365 0 0  0.03655 0 0  0.0366 0 0  0.03665 0 0  0.0367 0 0  0.03675 0 0  0.0368 0 0  0.03685 0 0  0.0369 0 0  0.03695 0 0  0.037 0 0  0.03705 0 0  0.0371 0 0  0.03715 0 0  0.0372 0 0  0.03725 0 0  0.0373 0 0  0.03735 0 0  0.0374 0 0  0.03745 0 0  0.0375 0 0  0.03755 0 0  0.0376 0 0  0.03765 0 0  0.0377 0 0  0.03775 0 0  0.0378 0 0  0.03785 0 0  0.0379 0 0  0.03795 0 0  0.038 0 0  0.03805 0 0  0.0381 0 0  0.0
[...]
<PointData  Scalars="f_13"> 
<DataArray  type="Float64"  Name="f_13"  format="ascii">2.3245241346487771e+57  9.9300390298538870e+52  4.2959356689113245e+52  2.5380178535548030e+52  1.7106826692966831e+52  1.2418140508631679e+52  9.4580251945840884e+51  7.4514923692015363e+51  6.0207923870560191e+51  4.9612507047263254e+51  4.1530549059378537e+51  3.5217960597984119e+51  3.0190494083305462e+51  2.6120804929379397e+51  2.2780537142635941e+51  2.0006107229994782e+51  1.7677644909487451e+51  1.5705572969519048e+51  1.4021795392219263e+51  1.2573758655703994e+51  1.1320356763538492e+51  1.0229049794606089e+51  9.2737993679426078e+50  8.4335652181571898e+50  7.6911942195238268e+50  7.0325884256752367e+50  6.4460744527757419e+50  5.9219201440290309e+50  5.4519603197916499e+50  5.0293042545255128e+50  4.6481050347828788e+50  4.3033762330476407e+50  3.9908450913681750e+50  3.7068341164866060e+50  3.4481649601796135e+50  3.2120799094946487e+50  2.9961773894433572e+50  2.7983586886611232e+50  2.6167837292877741e+50  2.4498341676824176e+50  2.2960824698293591e+50  2.1542658814850972e+50  2.0232644280803250e+50  1.9020822477627894e+50  1.7898316936404701e+50  1.6857197464273409e+50  1.5890363624728189e+50  1.4991444492581088e+50  1.4154712144534848e+50  1.3375006783094801e+50  1.2647671746377479e+50  1.1968496945864102e+50  1.1333669511307614e+50  1.0739730617060833e+50  1.0183537625135117e+50  9.6622308137402374e+49  9.1732040710153622e+49  8.7140790262369119e+49  8.2826821682773849e+49  7.8770245661523250e+49  7.4952838612866364e+49  7.1357882474115408e+49  6.7970021932020000e+49  6.4775136960548127e+49  6.1760228837545892e+49  5.8913318049725952e+49  5.6223352702511261e+49  5.3680126228878910e+49  5.1274203344054466e+49  4.8996853324484996e+49  4.6839989803133949e+49  4.4796116371452869e+49  4.2858277363627479e+49  4.1020013272747937e+49  3.9275320313013082e+49  3.7618613698285577e+49  3.6044694256421667e+49  3.4548718041771678e+49  3.3126168645919579e+49  3.1772831939809608e+49  3.0484773009501083e+49  2.9258315073420376e+49  2.8090020191590752e+49  2.6976671597296867e+49  2.5915257499319073e+49  2.4902956218535996e+49  2.3937122536593589e+49  2.3015275146688181e+49  2.2135085107499656e+49  2.1294365211098833e+49  2.0491060184384846e+49  1.9723237651405837e+49  1.8989079790888628e+49  1.8286875629544371e+49  1.7615013917311680e+49  1.6971976535717198e+49  1.6356332395041965e+49  1.5766731780035983e+49  1.5201901107571948e+49  1.4660638062916989e+49  1.4141807084267347e+49  1.3644335167867829e+49  1.3167207968457933e+49  1.2709466171975609e+49  1.2270202119431068e+49  1.1848556662659745e+49  1.1443716234292364e+49  1.1054910115758990e+49  1.0681407888488535e+49  1.0322517054686820e+49  9.9775808151887756e+48  9.6459759928940540e+48  9.3271110912186317e+48  9.0204244778378259e+48  8.7253826847658660e+48  8.4414788165199374e+48  8.1682310587596693e+48  7.9051812803812130e+48  7.6518937225840365e+48  7.4079537689217797e+48  7.1729667908016467e+48  6.9465570633117972e+48  6.7283667466379700e+48  6.5180549286807381e+48  6.3152967248070931e+48  6.1197824309666353e+48  5.9312167266753812e+48  5.7493179246215753e+48  5.5738172638797366e+48  5.4044582439326749e+48  5.2409959968984480e+48  5.0831966955413847e+48  4.9308369948143565e+48  4.7837035048349861e+48  4.6415922933423190e+48  4.5043084158135273e+48  4.3716654715433509e+48  4.2434851841031382e+48  4.1195970047021460e+48  3.9998377370717421e+48  3.8840511825842521e+48  3.7720878044026084e+48  3.6638044095353150e+48  3.5590638477443012e+48  3.4577347263207422e+48  3.3596911398071761e+48  3.2648124138026513e+48  3.1729828620422854e+48  3.0840915559934993e+48  2.9980321062583888e+48  2.9147024551158980e+48  2.8340046795786429e+48  2.7558448043775031e+48  2.6801326243230454e+48  2.6067815355261960e+48  2.5357083749918529e+48  2.4668332681282967e+48  2.4000794837426243e+48  2.3353732961178051e+48  2.2726438537909642e+48  2.2118230546747384e+48  2.1528454271845388e+48  2.0956480170540814e+48  2.0401702795399498e+48  1.9863539767331028e+48  1.9341430797114133e+48  1.8834836752824101e+48  1.8343238770796261e+48  1.7866137407892381e+48  1.7403051832962139e+48  1.6953519055509137e+48  1.6517093189681343e+48  1.6093344751809498e+48  1.5681859989814684e+48  1.5282240242897693e+48  1.4894101330009291e+48  1.4517072965681681e+48  1.4150798201877504e+48  1.3794932894585273e+48  1.3449145193957360e+48  1.3113115056850767e+48  1.2786533780691143e+48  1.2469103557637106e+48  1.2160537048075325e+48  1.1860556972527622e+48  1.1568895721098674e+48  1.1285294979638007e+48  1.1009505371832247e+48  1.0741286116483927e+48  1.0480404699270505e+48  1.0226636558313670e+48  9.9797647829223311e+47  9.7395798249047097e+47  9.5058792218752826e+47  9.2784673320109537e+47  9.0571550797375414e+47  8.8417597118537395e+47  8.6321045636235391e+47  8.4280188343910857e+47  8.2293373722939493e+47  8.0359004676708882e+47  7.8475536547801876e+47  7.6641475214627172e+47  7.4855375264015105e+47  7.3115838236463906e+47  7.1421510940877071e+47  6.9771083835783062e+47  6.8163289474170257e+47  6.6596901009203946e+47  6.5070730758220647e+47  6.3583628822515134e+47  6.2134481760552223e+47  6.0722211312342941e+47  5.9345773172830432e+47  5.8004155812227704e+47  5.6696379341344878e+47  5.5421494420031944e+47  5.4178581206947392e+47  5.2966748348945219e+47  5.1785132008447902e+47  5.0632894927247296e+47  4.9509225525243717e+47  4.8413337032700587e+47  4.7344466654654083e+47  4.6301874766177861e+47  4.5284844137260001e+47  4.4292679186103009e+47  4.3324705259710304e+47  4.2380267940671529e+47  4.1458732379105980e+47  4.0559482648769023e+47  3.9681921126368264e+47  3.8825467893177190e+47  3.7989560158073679e+47  3.7173651701166730e+47  3.6377212337210831e+47  3.5599727398041369e+47  3.4840697233295758e+47  3.4099636728717255e+47  3.3376074841366126e+47  3.2669554151091964e+47  3.1979630427647806e+47  3.1305872212851734e+47  3.0647860417226194e+47  3.0005187930569279e+47  2.9377459245933629e+47  2.8764290096510692e+47  2.8165307104938127e+47  2.7580147444567844e+47  2.7008458512250446e+47  2.6449897612210430e+47  2.5904131650602942e+47  2.5370836840359170e+47  2.4849698415943788e+47  2.4340410357662110e+47  2.3842675125169219e+47  2.3356203399847229e+47  2.2880713835729630e+47  2.2415932818664214e+47  2.1961594233418761e+47  2.1517439238444418e+47  2.1083216048023033e+47  2.0658679721535546e+47  2.0243591959598169e+47  1.9837720906823559e+47  1.9440840960972672e+47  1.9052732588272483e+47  1.8673182144683146e+47  1.8301981702906418e+47  1.7938928884934944e+47  1.7583826699949825e+47  1.7236483387380847e+47  1.6896712264950841e+47  1.6564331581532250e+47  1.6239164374650661e+47  1.5921038332475764e+47  1.5609785660146496e+47  1.5305242950282503e+47  1.5007251057539784e+47  1.4715654977073328e+47  1.4430303726774844e+47  1.4151050233158136e+47  1.3877751220769852e+47  1.3610267105007218e+47  1.3348461888229043e+47  1.3092203059050197e+47  1.2841361494713647e+47  1.2595811366438463e+47  1.2355430047644920e+47  1.2120098024962257e+47  1.1889698811927440e+47  1.1664118865286818e+47  1.1443247503815470e+47  1.1226976829572292e+47  1.1015201651511564e+47  1.0807819411374548e+47  1.0604730111787403e+47  1.0405836246494324e+47  1.0211042732657049e+47  1.0020256845154657e+47  9.8333881528193976e+46  9.6503484565469841e+46  9.4710517292215313e+46  9.2954140573975836e+46  9.1233535846835639e+46  8.9547904567728700e+46  8.7896467680708344e+46  8.6278465098672097e+46  8.4693155200059434e+46  8.3139814340051657e+46  8.1617736375824142e+46  8.0126232205412523e+46  7.8664629319770796e+46  7.7232271367612272e+46  7.5828517732640111e+46  7.4452743122784122e+46  7.3104337171076930e+46  7.1782704047810820e+46  7.0487262083631703e+46  6.9217443403236711e+46  6.7972693569351348e+46  6.6752471236676651e+46  6.5556247815502145e+46  6.4383507144694500e+46  6.3233745173778229e+46  6.2106469653835495e+46  6.1001199836961441e+46  5.9917466184017367e+46  5.8854810080436221e+46  5.7812783559838880e+46  5.6790949035230095e+46  5.5788879037550001e+46  5.4806155961362411e+46  5.3842371817470995e+46  5.2897127992257908e+46  5.1970035013548697e+46  5.1060712322812220e+46  5.0168788053509861e+46  4.9293898815415590e+46  4.8435689484732091e+46  4.7593812999836291e+46  4.6767930162489945e+46  4.5957709444357818e+46  4.5162826798681527e+46  4.4382965476958533e+46  4.3617815850484962e+46  4.2867075236621800e+46  4.2130447729649675e+46  4.1407644036081907e+46  4.0698381314308298e+46  4.0002383018447706e+46  3.9319378746289318e+46  3.8649104091207607e+46  3.7991300497939218e+46  3.7345715122112520e+46  3.6712100693425187e+46  3.6090215382366716e+46  3.5479822670388109e+46  3.4880691223421497e+46  3.4292594768656753e+46  3.3715311974485330e+46  3.3148626333522631e+46  3.2592326048624472e+46  3.2046203921814620e+46  3.1510057246043706e+46  3.0983687699701386e+46  3.0466901243806066e+46  2.9959508021799877e+46  2.9461322261876760e+46  2.8972162181774905e+46  2.8491849895967235e+46  2.8020211325183907e+46  2.7557076108204344e+46  2.7102277515857030e+46  2.6655652367168352e+46  2.6217040947601616e+46  2.5786286929330694e+46  2.5363237293493962e+46  2.4947742254374868e+46  2.4539655185458722e+46  2.4138832547314669e+46  2.3745133817255032e+46  2.3358421420724817e+46  2.2978560664375151e+46  2.2605419670776773e+46  2.2238869314729668e+46  2.1878783161127480e+46  2.1525037404335403e+46  2.1177510809041934e+46  2.0836084652546369e+46  2.0500642668443905e+46  2.0171070991672454e+46  1.9847258104885436e+46  1.9529094786116191e+46  1.9216474057700837e+46  1.8909291136426409e+46  1.8607443384873504e+46  1.8310830263921854e+46  1.8019353286389276e+46  1.7732915971775250e+46  1.7451423802080076e+46  1.7174784178672928e+46  1.6902906380181325e+46  1.6635701521376603e+46  1.6373082513029632e+46  1.6114964022712459e+46  1.5861262436521774e+46  1.5611895821700809e+46  1.5366783890137382e+46  1.5125847962715537e+46  1.4889010934499621e+46  1.4656197240729963e+46  1.4427332823609499e+46  1.4202345099862035e+46  1.3981162929042506e+46  1.3763716582580573e+46  1.3549937713539618e+46  1.3339759327072995e+46  1.3133115751560575e+46  1.2929942610408429e+46  1.2730176794495748e+46  1.2533756435252615e+46  1.2340620878353315e+46  1.2150710658010093e+46  1.1963967471852562e+46  1.1780334156378536e+46  1.1599754662962251e+46  1.1422174034406393e+46  1.1247538382024774e+46  1.1075794863242638e+46  1.0906891659702290e+46  1.0740777955861448e+46  1.0577403918072792e+46  1.0416720674132869e+46  1.0258680293289065e+46  1.0103235766693821e+46  9.9503409882951040e+45  9.7999507361529244e+45  9.6520206541715025e+45  9.5065072342373066e+45  9.3633677987532709e+45  9.2225604835596819e+45  9.0840442212326684e+45  8.9477787247512516e+45  8.8137244715242681e+45  8.6818426877687496e+45  8.5520953332312228e+45  8.4244450862441867e+45  8.2988553291095634e+45  8.1752901338017687e+45  8.0537142479825769e+45  7.9340930813207631e+45  7.8163926921093383e+45  7.7005797741732454e+45  7.5866216440610820e+45  7.4744862285140107e+45  7.3641420522054312e+45  7.2555582257453714e+45  7.1487044339431321e+45  7.0435509243225687e+45  6.9400684958839276e+45  6.8382284881066654e+45  6.7380027701877872e+45  6.6393637305101376e+45  6.5422842663355170e+45  6.4467377737174348e+45  6.3526981376285072e+45  6.2601397222975338e+45  6.1690373617515637e+45  6.0793663505582943e+45  5.9911024347641814e+45  5.9042218030239745e+45  5.8187010779171550e+45  5.7345173074471791e+45  5.6516479567194835e+45  5.5700708997939860e+45  5.4897644117084409e+45  5.4107071606686262e+45  5.3328782004016703e+45  5.2562569626689596e+45  5.1808232499348880e+45  5.1065572281881894e+45  5.0334394199122461e+45  4.9614506972012453e+45  4.8905722750188194e+45  4.8207857045960592e+45  4.7520728669658434e+45  4.6844159666304078e+45  4.6177975253593011e+45  4.5522003761147892e+45  4.4876076571019066e+45  4.4240028059404879e+45  4.3613695539563940e+45  4.2996919205894724e+45  4.2389542079155217e+45  4.1791409952799537e+45  4.1202371340405714e+45  4.0622277424171568e+45  4.0050982004455944e+45  3.9488341450341395e+45  3.8934214651197430e+45  3.8388462969221940e+45  3.7850950192939804e+45  3.7321542491638464e+45  3.6800108370719483e+45  3.6286518627947453e+45  3.5780646310575918e+45  3.5282366673332025e+45  3.4791557137242059e+45  3.4308097249278522e+45  3.3831868642812725e+45  3.3362754998854636e+45  3.2900642008063665e+45  3.2445417333514037e+45  3.1996970574198637e+45  3.1555193229255917e+45  3.1119978662903839e+45  3.0691222070067064e+45  3.0268820442681664e+45  2.9852672536663605e+45  2.9442678839527243e+45  2.9038741538639616e+45  2.8640764490097761e+45  2.8248653188215458e+45  2.7862314735607017e+45  2.7481657813855745e+45  2.7106592654754317e+45  2.6737031012105918e+45  2.6372886134073653e+45  2.6014072736067711e+45  2.5660506974158423e+45  2.5312106419004467e+45  2.4968790030286109e+45  2.4630478131632022e+45  2.4297092386030638e+45  2.3968555771715200e+45  2.3644792558513074e+45  2.3325728284649933e+45  2.3011289733999102e+45  2.2701404913767414e+45  2.2396003032608216e+45  2.2095014479152964e+45  2.1798370800953126e+45  2.1506004683823366e+45  2.1217849931578669e+45  2.0933841446156647e+45  2.0653915208117857e+45  2.0378008257515965e+45  2.0106058675130438e+45  1.9838005564054644e+45  1.9573789031631801e+45  1.9313350171732172e+45  1.9056631047364256e+45  1.8803574673613396e+45  1.8554125000901495e+45  1.8308226898560923e+45  1.8065826138716783e+45  1.7826869380470901e+45  1.7591304154381981e+45  1.7359078847235735e+45  1.7130142687099133e+45  1.6904445728653561e+45  1.6681938838800684e+45  1.6462573682536247e+45  1.6246302709086110e+45  1.6033079138299334e+45  1.5822856947293556e+45  1.5615590857347266e+45  1.5411236321034381e+45  1.5209749509596246e+45  1.5011087300546362e+45  1.4815207265503475e+45  1.4622067658248231e+45  1.4431627402999240e+45  1.4243846082904130e+45  1.4058683928741585e+45  1.3876101807830029e+45  1.3696061213138947e+45  1.3518524252599136e+45  1.3343453638607617e+45  1.3170812677723912e+45  1.3000565260553513e+45  1.2832675851815197e+45  1.2667109480588591e+45  1.2503831730738384e+45  1.2342808731511978e+45  1.2184007148307016e+45  1.2027394173605610e+45  1.1872937518072178e+45  1.1720605401811539e+45  1.1570366545784383e+45  1.1422190163376857e+45  1.1276045952121689e+45  1.1131904085567573e+45  1.0989735205294189e+45  1.0849510413070160e+45  1.0711201263150882e+45  1.0574779754714016e+45  1.0440218324429694e+45  1.0307489839162961e+45  1.0176567588806131e+45  1.0047425279238249e+45  9.9200370254096423e+44  9.7943773445488143e+44  9.6704211494897811e+44  9.5481437421172542e+44  9.4275208069275681e+44  9.3085284047032462e+44  9.1911429662988862e+44  9.0753412865365599e+44  8.9611005182084299e+44  8.8483981661846055e+44  8.7372120816244997e+44  8.6275204562894074e+44  8.5193018169547060e+44  8.4125350199196910e+44  8.3071992456132471e+44  8.2032739932936350e+44  8.1007390758405197e+44  7.9995746146376855e+44  7.8997610345446224e+44  7.8012790589554713e+44  7.7041097049436232e+44  7.6082342784903527e+44  7.5136343697961041e+44  7.4202918486727523e+44  7.3281888600154437e+44  7.2373078193524872e+44  7.1476314084719113e+44  7.0591425711232252e+44  6.9718245087931671e+44  6.8856606765538678e+44  6.8006347789822332e+44  6.7167307661492706e+44  6.6339328296779789e+44  6.5522253988686925e+44  6.4715931368905123e+44  6.3920209370377735e+44  6.3134939190502018e+44  6.2359974254957228e+44  6.1595170182148116e+44  6.0840384748251611e+44  6.0095477852856838e+44  5.9360311485186552e+44  5.8634749690891977e+44  5.7918658539407027e+44  5.7211906091855493e+44  5.6514362369499105e+44  5.5825899322716902e+44  5.5146390800507952e+44  5.4475712520506022e+44  5.3813742039498336e+44  5.3160358724439318e+44  5.2515443723949524e+44  5.1878879940293037e+44  5.1250552001822724e+44  5.0630346235886084e+44  5.0018150642183972e+44  4.9413854866572483e+44  4.8817350175302548e+44  4.8228529429687347e+44  4.7647287061191161e+44  4.7073519046931866e+44  4.6507122885589541e+44  4.5947997573714936e+44  4.5396043582429458e+44  4.4851162834511001e+44  4.4313258681858056e+44  4.3782235883325436e+44  4.3258000582926177e+44  4.2740460288391792e+44  4.2229523850085509e+44  4.1725101440261992e+44  4.1227104532667309e+44  4.0735445882474242e+44  4.0250039506545593e+44  3.9770800664020970e+44  3.9297645837220584e+44  3.8830492712861737e+44  3.8369260163580957e+44  3.7913868229757746e+44  3.7464238101634571e+44  3.7020292101727075e+44  3.6581953667520932e+44  3.6149147334449133e+44  3.5721798719145335e+44  3.5299834502968957e+44  3.4883182415796426e+44  3.4471771220075064e+44  3.4065530695134160e+44  3.3664391621749480e+44  3.3268285766956677e+44  3.2877145869108747e+44  3.2490905623174878e+44  3.2109499666274705e+44  3.1732863563445344e+44  3.1360933793636746e+44  3.0993647735931094e+44  3.0630943655983481e+44  3.0272760692678915e+44  2.9919038845002880e+44  2.9569718959121375e+44  2.9224742715666743e+44  2.8884052617226661e+44  2.8547591976031731e+44  2.8215304901839234e+44  2.7887136290008778e+44  2.7563031809768111e+44  2.7242937892664251e+44  2.6926801721197644e+44  2.6614571217636492e+44  2.6306195033007552e+44  2.6001622536261229e+44  2.5700803803607205e+44  2.5403689608018516e+44  2.5110231408900686e+44  2.4820381341923512e+44  2.4534092209012751e+44  2.4251317468498749e+44  2.3972011225419814e+44  2.3696128221977720e+44  2.3423623828142106e+44  2.3154454032402453e+44  2.2888575432664372e+44  2.2625945227287925e+44  2.2366521206265964e+44  2.2110261742539662e+44  2.1857125783449711e+44  2.1607072842319966e+44  2.1360062990172300e+44  2.1116056847570001e+44  2.0875015576587449e+44  2.0636900872904669e+44  2.0401674958023911e+44  2.0169300571606750e+44  1.9939740963929793e+44  1.9712959888456437e+44  1.9488921594523739e+44  1.9267590820141580e+44  1.9048932784902898e+44  1.8832913183002887e+44  1.8619498176365617e+44  1.8408654387876052e+44  1.8200348894715902e+44  1.7994549221801686e+44  1.7791223335323178e+44  1.7590339636380889e+44  1.7391866954720524e+44  1.7195774542563344e+44  1.7002032068530577e+44  1.6810609611660332e+44  1.6621477655515864e+44  1.6434607082383261e+44  1.6249969167557402e+44  1.6067535573714763e+44  1.5887278345371441e+44  1.5709169903425486e+44  1.5533183039781551e+44  1.5359290912057177e+44  1.5187467038368917e+44  1.5017685292197279e+44  1.4849919897329268e+44  1.4684145422877035e+44  1.4520336778371627e+44  1.4358469208930648e+44  1.4198518290498497e+44  1.4040459925158190e+44  1.3884270336513507e+44  1.3729926065140516e+44  1.3577403964106974e+44  1.3426681194559233e+44  1.3277735221374782e+44  1.3130543808879967e+44  1.2985085016631610e+44  1.2841337195261490e+44  1.2699278982382937e+44  1.2558889298558252e+44  1.2420147343326116e+44  1.2283032591288234e+44  1.2147524788253825e+44  1.2013603947441644e+44  1.1881250345738096e+44  1.1750444520010897e+44  1.1621167263477297e+44  1.1493399622125879e+44  1.1367122891191525e+44  1.1242318611682124e+44  1.1118968566956702e+44  1.0997054779353900e+44  1.0876559506870129e+44  1.0757465239886630e+44  1.0639754697944626e+44  1.0523410826567807e+44  1.0408416794131559e+44  1.0294755988777920e+44  1.0182412015375941e+44  1.0071368692526357e+44  9.9616100496102185e+43  9.8531203238805377e+43  9.7458839575964848e+43  9.6398855951993641e+43  9.5351100805297327e+43  9.4315424540850859e+43  9.3291679503173907e+43  9.2279719949700189e+43  9.1279402024532750e+43  9.0290583732579984e+43  8.9313124914068118e+43  8.8346887219421601e+43  8.7391734084508066e+43  8.6447530706240994e+43  8.5514144018535376e+43  8.4591442668610555e+43  8.3679296993634107e+43  8.2777578997704517e+43  8.1886162329163507e+43  8.1004922258236252e+43  8.0133735654992286e+43  7.9272480967623473e+43  7.8421038201034592e+43  7.7579288895739968e+43  7.6747116107062949e+43  7.5924404384634114e+43  7.5111039752181624e+43  7.4306909687612104e+43  7.3511903103374734e+43  7.2725910327106395e+43  7.1948823082552959e+43  7.1180534470762085e+43  7.0420938951544584e