<?xml version="1.0"?>
<VTKFile type="UnstructuredGrid"  version="0.1"  >
<UnstructuredGrid>
<Piece  NumberOfPoints="20001" NumberOfCells="20000">
<Points>
<DataArray  type="Float64"  NumberOfComponents="3"  format="ascii">0 0 0  5e-05 0 0  0.0001 0 0  0.00015 0 0  0.0002 0 0  0.00025 0 0  0.0003 0 0  0.00035 0 0  0.0004 0 0  0.00045 0 0  0.0005 0 0  0.00055 0 0  0.0005999999999999999 0 0  0.00065 0 0  0.0007 0 0  0.00075 0 0  0.0008 0 0  0.00085 0 0  0.0009 0 0  0.00095 0 0  0.001 0 0  0.00105 0 0  0.0011 0 0  0.00115 0 0  0.0012 0 0  0.00125 0 0  0.0013 0 0  0.00135 0 0  0.0014 0 0  0.00145 0 0  0.0015 0 0  0.00155 0 0  0.0016 0 0  0.00165 0 0  0.0017 0 0  0.00175 0 0  0.0018 0 0  0.00185 0 0  0.0019 0 0  0.00195 0 0  0.002 0 0  0.00205 0 0  0.0021 0 0  0.00215 0 0  0.0022 0 0  0.00225 0 0  0.0023 0 0  0.00235 0 0  0.0024 0 0  0.00245 0 0  0.0025 0 0  0.00255 0 0  0.0026 0 0  0.00265 0 0  0.0027 0 0  0.00275 0 0  0.0028 0 0  0.00285 0 0  0.0029 0 0  0.00295 0 0  0.003 0 0  0.00305 0 0  0.0031 0 0  0.00315 0 0  0.0032 0 0  0.00325 0 0  0.0033 0 0  0.00335 0 0  0.0034 0 0  0.00345 0 0  0.0035 0 0  0.00355 0 0  0.0036 0 0  0.00365 0 0  0.0037 0 0  0.00375 0 0  0.0038 0 0  0.00385 0 0  0.0039 0 0  0.00395 0 0  0.004 0 0  0.00405 0 0  0.0041 0 0  0.00415 0 0  0.0042 0 0  0.00425 0 0  0.0043 0 0  0.00435 0 0  0.0044 0 0  0.00445 0 0  0.0045 0 0  0.00455 0 0  0.0046 0 0  0.00465 0 0  0.0047 0 0  0.00475 0 0  0.0048 0 0  0.00485 0 0  0.0049 0 0  0.00495 0 0  0.005 0 0  0.00505 0 0  0.0051 0 0  0.00515 0 0  0.0052 0 0  0.00525 0 0  0.0053 0 0  0.00535 0 0  0.0054 0 0  0.00545 0 0  0.0055 0 0  0.00555 0 0  0.0056 0 0  0.00565 0 0  0.0057 0 0  0.00575 0 0  0.0058 0 0  0.00585 0 0  0.0059 0 0  0.00595 0 0  0.006 0 0  0.00605 0 0  0.0061 0 0  0.00615 0 0  0.0062 0 0  0.00625 0 0  0.0063 0 0  0.00635 0 0  0.0064 0 0  0.00645 0 0  0.0065 0 0  0.00655 0 0  0.0066 0 0  0.00665 0 0  0.0067 0 0  0.00675 0 0  0.0068 0 0  0.00685 0 0  0.0069 0 0  0.00695 0 0  0.007 0 0  0.00705 0 0  0.0071 0 0  0.00715 0 0  0.0072 0 0  0.00725 0 0  0.0073 0 0  0.00735 0 0  0.0074 0 0  0.00745 0 0  0.0075 0 0  0.00755 0 0  0.0076 0 0  0.00765 0 0  0.0077 0 0  0.00775 0 0  0.0078 0 0  0.007849999999999999 0 0  0.007900000000000001 0 0  0.00795 0 0  0.008 0 0  0.00805 0 0  0.0081 0 0  0.008149999999999999 0 0  0.008200000000000001 0 0  0.00825 0 0  0.0083 0 0  0.00835 0 0  0.008399999999999999 0 0  0.008449999999999999 0 0  0.008500000000000001 0 0  0.00855 0 0  0.0086 0 0  0.00865 0 0  0.008699999999999999 0 0  0.008750000000000001 0 0  0.008800000000000001 0 0  0.00885 0 0  0.0089 0 0  0.00895 0 0  0.008999999999999999 0 0  0.009050000000000001 0 0  0.0091 0 0  0.00915 0 0  0.0092 0 0  0.00925 0 0  0.009299999999999999 0 0  0.009350000000000001 0 0  0.0094 0 0  0.00945 0 0  0.0095 0 0  0.009549999999999999 0 0  0.009599999999999999 0 0  0.009650000000000001 0 0  0.0097 0 0  0.00975 0 0  0.0098 0 0  0.009849999999999999 0 0  0.009900000000000001 0 0  0.009950000000000001 0 0  0.01 0 0  0.01005 0 0  0.0101 0 0  0.01015 0 0  0.0102 0 0  0.01025 0 0  0.0103 0 0  0.01035 0 0  0.0104 0 0  0.01045 0 0  0.0105 0 0  0.01055 0 0  0.0106 0 0  0.01065 0 0  0.0107 0 0  0.01075 0 0  0.0108 0 0  0.01085 0 0  0.0109 0 0  0.01095 0 0  0.011 0 0  0.01105 0 0  0.0111 0 0  0.01115 0 0  0.0112 0 0  0.01125 0 0  0.0113 0 0  0.01135 0 0  0.0114 0 0  0.01145 0 0  0.0115 0 0  0.01155 0 0  0.0116 0 0  0.01165 0 0  0.0117 0 0  0.01175 0 0  0.0118 0 0  0.01185 0 0  0.0119 0 0  0.01195 0 0  0.012 0 0  0.01205 0 0  0.0121 0 0  0.01215 0 0  0.0122 0 0  0.01225 0 0  0.0123 0 0  0.01235 0 0  0.0124 0 0  0.01245 0 0  0.0125 0 0  0.01255 0 0  0.0126 0 0  0.01265 0 0  0.0127 0 0  0.01275 0 0  0.0128 0 0  0.01285 0 0  0.0129 0 0  0.01295 0 0  0.013 0 0  0.01305 0 0  0.0131 0 0  0.01315 0 0  0.0132 0 0  0.01325 0 0  0.0133 0 0  0.01335 0 0  0.0134 0 0  0.01345 0 0  0.0135 0 0  0.01355 0 0  0.0136 0 0  0.01365 0 0  0.0137 0 0  0.01375 0 0  0.0138 0 0  0.01385 0 0  0.0139 0 0  0.01395 0 0  0.014 0 0  0.01405 0 0  0.0141 0 0  0.01415 0 0  0.0142 0 0  0.01425 0 0  0.0143 0 0  0.01435 0 0  0.0144 0 0  0.01445 0 0  0.0145 0 0  0.01455 0 0  0.0146 0 0  0.01465 0 0  0.0147 0 0  0.01475 0 0  0.0148 0 0  0.01485 0 0  0.0149 0 0  0.01495 0 0  0.015 0 0  0.01505 0 0  0.0151 0 0  0.01515 0 0  0.0152 0 0  0.01525 0 0  0.0153 0 0  0.01535 0 0  0.0154 0 0  0.01545 0 0  0.0155 0 0  0.01555 0 0  0.0156 0 0  0.01565 0 0  0.0157 0 0  0.01575 0 0  0.0158 0 0  0.01585 0 0  0.0159 0 0  0.01595 0 0  0.016 0 0  0.01605 0 0  0.0161 0 0  0.01615 0 0  0.0162 0 0  0.01625 0 0  0.0163 0 0  0.01635 0 0  0.0164 0 0  0.01645 0 0  0.0165 0 0  0.01655 0 0  0.0166 0 0  0.01665 0 0  0.0167 0 0  0.01675 0 0  0.0168 0 0  0.01685 0 0  0.0169 0 0  0.01695 0 0  0.017 0 0  0.01705 0 0  0.0171 0 0  0.01715 0 0  0.0172 0 0  0.01725 0 0  0.0173 0 0  0.01735 0 0  0.0174 0 0  0.01745 0 0  0.0175 0 0  0.01755 0 0  0.0176 0 0  0.01765 0 0  0.0177 0 0  0.01775 0 0  0.0178 0 0  0.01785 0 0  0.0179 0 0  0.01795 0 0  0.018 0 0  0.01805 0 0  0.0181 0 0  0.01815 0 0  0.0182 0 0  0.01825 0 0  0.0183 0 0  0.01835 0 0  0.0184 0 0  0.01845 0 0  0.0185 0 0  0.01855 0 0  0.0186 0 0  0.01865 0 0  0.0187 0 0  0.01875 0 0  0.0188 0 0  0.01885 0 0  0.0189 0 0  0.01895 0 0  0.019 0 0  0.01905 0 0  0.0191 0 0  0.01915 0 0  0.0192 0 0  0.01925 0 0  0.0193 0 0  0.01935 0 0  0.0194 0 0  0.01945 0 0  0.0195 0 0  0.01955 0 0  0.0196 0 0  0.01965 0 0  0.0197 0 0  0.01975 0 0  0.0198 0 0  0.01985 0 0  0.0199 0 0  0.01995 0 0  0.02 0 0  0.02005 0 0  0.0201 0 0  0.02015 0 0  0.0202 0 0  0.02025 0 0  0.0203 0 0  0.02035 0 0  0.0204 0 0  0.02045 0 0  0.0205 0 0  0.02055 0 0  0.0206 0 0  0.02065 0 0  0.0207 0 0  0.02075 0 0  0.0208 0 0  0.02085 0 0  0.0209 0 0  0.02095 0 0  0.021 0 0  0.02105 0 0  0.0211 0 0  0.02115 0 0  0.0212 0 0  0.02125 0 0  0.0213 0 0  0.02135 0 0  0.0214 0 0  0.02145 0 0  0.0215 0 0  0.02155 0 0  0.0216 0 0  0.02165 0 0  0.0217 0 0  0.02175 0 0  0.0218 0 0  0.02185 0 0  0.0219 0 0  0.02195 0 0  0.022 0 0  0.02205 0 0  0.0221 0 0  0.02215 0 0  0.0222 0 0  0.02225 0 0  0.0223 0 0  0.02235 0 0  0.0224 0 0  0.02245 0 0  0.0225 0 0  0.02255 0 0  0.0226 0 0  0.02265 0 0  0.0227 0 0  0.02275 0 0  0.0228 0 0  0.02285 0 0  0.0229 0 0  0.02295 0 0  0.023 0 0  0.02305 0 0  0.0231 0 0  0.02315 0 0  0.0232 0 0  0.02325 0 0  0.0233 0 0  0.02335 0 0  0.0234 0 0  0.02345 0 0  0.0235 0 0  0.02355 0 0  0.0236 0 0  0.02365 0 0  0.0237 0 0  0.02375 0 0  0.0238 0 0  0.02385 0 0  0.0239 0 0  0.02395 0 0  0.024 0 0  0.02405 0 0  0.0241 0 0  0.02415 0 0  0.0242 0 0  0.02425 0 0  0.0243 0 0  0.02435 0 0  0.0244 0 0  0.02445 0 0  0.0245 0 0  0.02455 0 0  0.0246 0 0  0.02465 0 0  0.0247 0 0  0.02475 0 0  0.0248 0 0  0.02485 0 0  0.0249 0 0  0.02495 0 0  0.025 0 0  0.02505 0 0  0.0251 0 0  0.02515 0 0  0.0252 0 0  0.02525 0 0  0.0253 0 0  0.02535 0 0  0.0254 0 0  0.02545 0 0  0.0255 0 0  0.02555 0 0  0.0256 0 0  0.02565 0 0  0.0257 0 0  0.02575 0 0  0.0258 0 0  0.02585 0 0  0.0259 0 0  0.02595 0 0  0.026 0 0  0.02605 0 0  0.0261 0 0  0.02615 0 0  0.0262 0 0  0.02625 0 0  0.0263 0 0  0.02635 0 0  0.0264 0 0  0.02645 0 0  0.0265 0 0  0.02655 0 0  0.0266 0 0  0.02665 0 0  0.0267 0 0  0.02675 0 0  0.0268 0 0  0.02685 0 0  0.0269 0 0  0.02695 0 0  0.027 0 0  0.02705 0 0  0.0271 0 0  0.02715 0 0  0.0272 0 0  0.02725 0 0  0.0273 0 0  0.02735 0 0  0.0274 0 0  0.02745 0 0  0.0275 0 0  0.02755 0 0  0.0276 0 0  0.02765 0 0  0.0277 0 0  0.02775 0 0  0.0278 0 0  0.02785 0 0  0.0279 0 0  0.02795 0 0  0.028 0 0  0.02805 0 0  0.0281 0 0  0.02815 0 0  0.0282 0 0  0.02825 0 0  0.0283 0 0  0.02835 0 0  0.0284 0 0  0.02845 0 0  0.0285 0 0  0.02855 0 0  0.0286 0 0  0.02865 0 0  0.0287 0 0  0.02875 0 0  0.0288 0 0  0.02885 0 0  0.0289 0 0  0.02895 0 0  0.029 0 0  0.02905 0 0  0.0291 0 0  0.02915 0 0  0.0292 0 0  0.02925 0 0  0.0293 0 0  0.02935 0 0  0.0294 0 0  0.02945 0 0  0.0295 0 0  0.02955 0 0  0.0296 0 0  0.02965 0 0  0.0297 0 0  0.02975 0 0  0.0298 0 0  0.02985 0 0  0.0299 0 0  0.02995 0 0  0.03 0 0  0.03005 0 0  0.0301 0 0  0.03015 0 0  0.0302 0 0  0.03025 0 0  0.0303 0 0  0.03035 0 0  0.0304 0 0  0.03045 0 0  0.0305 0 0  0.03055 0 0  0.0306 0 0  0.03065 0 0  0.0307 0 0  0.03075 0 0  0.0308 0 0  0.03085 0 0  0.0309 0 0  0.03095 0 0  0.031 0 0  0.03105 0 0  0.0311 0 0  0.03115 0 0  0.0312 0 0  0.03125 0 0  0.0313 0 0  0.03135 0 0  0.0314 0 0  0.03145 0 0  0.0315 0 0  0.03155 0 0  0.0316 0 0  0.03165 0 0  0.0317 0 0  0.03175 0 0  0.0318 0 0  0.03185 0 0  0.0319 0 0  0.03195 0 0  0.032 0 0  0.03205 0 0  0.0321 0 0  0.03215 0 0  0.0322 0 0  0.03225 0 0  0.0323 0 0  0.03235 0 0  0.0324 0 0  0.03245 0 0  0.0325 0 0  0.03255 0 0  0.0326 0 0  0.03265 0 0  0.0327 0 0  0.03275 0 0  0.0328 0 0  0.03285 0 0  0.0329 0 0  0.03295 0 0  0.033 0 0  0.03305 0 0  0.0331 0 0  0.03315 0 0  0.0332 0 0  0.03325 0 0  0.0333 0 0  0.03335 0 0  0.0334 0 0  0.03345 0 0  0.0335 0 0  0.03355 0 0  0.0336 0 0  0.03365 0 0  0.0337 0 0  0.03375 0 0  0.0338 0 0  0.03385 0 0  0.0339 0 0  0.03395 0 0  0.034 0 0  0.03405 0 0  0.0341 0 0  0.03415 0 0  0.0342 0 0  0.03425 0 0  0.0343 0 0  0.03435 0 0  0.0344 0 0  0.03445 0 0  0.0345 0 0  0.03455 0 0  0.0346 0 0  0.03465 0 0  0.0347 0 0  0.03475 0 0  0.0348 0 0  0.03485 0 0  0.0349 0 0  0.03495 0 0  0.035 0 0  0.03505 0 0  0.0351 0 0  0.03515 0 0  0.0352 0 0  0.03525 0 0  0.0353 0 0  0.03535 0 0  0.0354 0 0  0.03545 0 0  0.0355 0 0  0.03555 0 0  0.0356 0 0  0.03565 0 0  0.0357 0 0  0.03575 0 0  0.0358 0 0  0.03585 0 0  0.0359 0 0  0.03595 0 0  0.036 0 0  0.03605 0 0  0.0361 0 0  0.03615 0 0  0.0362 0 0  0.03625 0 0  0.0363 0 0  0.03635 0 0  0.0364 0 0  0.03645 0 0  0.0365 0 0  0.03655 0 0  0.0366 0 0  0.03665 0 0  0.0367 0 0  0.03675 0 0  0.0368 0 0  0.03685 0 0  0.0369 0 0  0.03695 0 0  0.037 0 0  0.03705 0 0  0.0371 0 0  0.03715 0 0  0.0372 0 0  0.03725 0 0  0.0373 0 0  0.03735 0 0  0.0374 0 0  0.03745 0 0  0.0375 0 0  0.03755 0 0  0.0376 0 0  0.03765 0 0  0.0377 0 0  0.03775 0 0  0.0378 0 0  0.03785 0 0  0.0379 0 0  0.03795 0 0  0.038 0 0  0.03805 0 0  0.0381 0 0  0.0
[...]
<PointData  Scalars="f_13"> 
<DataArray  type="Float64"  Name="f_13"  format="ascii">8.1417679565300461e+134  3.4780483616089772e+130  1.5046740470922855e+130  8.8895409280385339e+129  5.9917559611724408e+129  4.3495189817911545e+129  3.3127230349429618e+129  2.6099243666945140e+129  2.1088141783160871e+129  1.7377041352231914e+129  1.4546293088922355e+129  1.2335275801915010e+129  1.0574379231231602e+129  9.1489492151444797e+128  7.9790028666869479e+128  7.0072442076273246e+128  6.1916880416786088e+128  5.5009594796698175e+128  4.9112075334352596e+128  4.4040250557183865e+128  3.9650144552184638e+128  3.5827784535374445e+128  3.2481969708872120e+128  2.9539005437288507e+128  2.6938811996215210e+128  2.4632010587525306e+128  2.2577714570791645e+128  2.0741836555321639e+128  1.9095777570259501e+128  1.7615402487237678e+128  1.6280232184596882e+128  1.5072801437879751e+128  1.3978144687788365e+128  1.2983381320901230e+128  1.2077379005515014e+128  1.1250478707070468e+128  1.0494268782946239e+128  9.8013983862813537e+127  9.1654225476576994e+127  8.5806729334143492e+127  8.0421495306314127e+127  7.5454294762017848e+127  7.0865900003316006e+127  6.6621430445417290e+127  6.2689795789389385e+127  5.9043220117935320e+127  5.5656833779000808e+127  5.2508322272264861e+127  4.9577623245324311e+127  4.6846664236259678e+127  4.4299135042074094e+127  4.1920289606452068e+127  3.9696773150952187e+127  3.7616470956952390e+127  3.5668375769723205e+127  3.3842471263389916e+127  3.2129629394185048e+127  3.0521519793644199e+127  2.9010529624805486e+127  2.7589692552359400e+127  2.6252625669615132e+127  2.4993473387247629e+127  2.3806857426084784e+127  2.2687832172795277e+127  2.1631844756624586e+127  2.0634699290080558e+127  1.9692524788999802e+127  1.8801746349637740e+127  1.7959059213911109e+127  1.7161405400007589e+127  1.6405952615371397e+127  1.5690075203507984e+127  1.5011336905907533e+127  1.4367475246324278e+127  1.3756387367226001e+127  1.3176117167914956e+127  1.2624843611021407e+127  1.2100870079122211e+127  1.1602614676431808e+127  1.1128601382099335e+127  1.0677451971835507e+127  1.0247878633569325e+127  9.8386772107544245e+126  9.4487210139417219e+126  9.0769551474268296e+126  8.7223913032669869e+126  8.3841029798306595e+126  8.0612210863683340e+126  7.7529298989419302e+126  7.4584633364784820e+126  7.1771015287720773e+126  6.9081676509891819e+126  6.6510250016745609e+126  6.4050743034410664e+126  6.1697512074861156e+126  5.9445239848353184e+126  5.7288913887929270e+126  5.5223806744986470e+126  5.3245457627683008e+126  5.1349655365474411e+126  4.9532422593458887e+126  4.7790001059587749e+126  4.6118837966273016e+126  4.4515573265591638e+126  4.2977027834226145e+126  4.1500192460574105e+126  4.0082217582164215e+126  3.8720403716697020e+126  3.7412192534737119e+126  3.6155158526363325e+126  3.4947001217979232e+126  3.3785537899037209e+126  3.2668696821663189e+126  3.1594510839121072e+126  3.0561111451752081e+126  2.9566723231485714e+126  2.8609658598271063e+126  2.7688312923837942e+126  2.6801159940084393e+126  2.5946747431115164e+126  2.5123693189542659e+126  2.4330681219115393e+126  2.3566458167076181e+126  2.2829829970878723e+126  2.2119658705020272e+126  2.1434859614786541e+126  2.0774398324660583e+126  2.0137288210027745e+126  1.9522587921620693e+126  1.8929399052896531e+126  1.8356863941228720e+126  1.7804163594434562e+126  1.7270515734747678e+126  1.6755172952889457e+126  1.6257420965397408e+126  1.5776576968834223e+126  1.5311988084932663e+126  1.4863029891131326e+126  1.4429105031326740e+126  1.4009641902010570e+126  1.3604093409279732e+126  1.3211935792502870e+126  1.2832667510701175e+126  1.2465808187957307e+126  1.2110897614402720e+126  1.1767494799555183e+126  1.1435177074982814e+126  1.1113539243462501e+126  1.0802192771978582e+126  1.0500765026073162e+126  1.0208898543214180e+126  9.9262503429915772e+125  9.6524912720860068e+125  9.3873053820803703e+125  9.1303893383013634e+125  8.8814518579876718e+125  8.6402131761836578e+125  8.4064045378532570e+125  8.1797677147976102e+125  7.9600545460441084e+125  7.7470265004523786e+125  7.5404542603562650e+125  7.3401173251292936e+125  7.1458036336254669e+125  6.9573092045074364e+125  6.7744377935306203e+125  6.5970005669047601e+125  6.4248157899042042e+125  6.2577085299447566e+125  6.0955103733888136e+125  5.9380591553815712e+125  5.7851987020598210e+125  5.6367785845110765e+125  5.4926538838950535e+125  5.3526849671715015e+125  5.2167372729087064e+125  5.0846811066753853e+125  4.9563914455453641e+125  4.8317477512698307e+125  4.7106337916954794e+125  4.5929374700293578e+125  4.4785506615722855e+125  4.3673690575625659e+125  4.2592920157904010e+125  4.1542224176612009e+125  4.0520665314025936e+125  3.9527338811257019e+125  3.8561371214660648e+125  3.7621919175437464e+125  3.6708168299951996e+125  3.5819332048422720e+125  3.4954650679753445e+125  3.4113390240388785e+125  3.3294841595182211e+125  3.2498319498365571e+125  3.1723161702802648e+125  3.0968728105800520e+125  3.0234399929835968e+125  2.9519578936634740e+125  2.8823686673118441e+125  2.8146163747804373e+125  2.7486469136313593e+125  2.6844079514705774e+125  2.6218488619421293e+125  2.5609206632669453e+125  2.5015759592156471e+125  2.4437688824099102e+125  2.3874550398519937e+125  2.3325914605866924e+125  2.2791365454044818e+125  2.2270500184988345e+125  2.1762928809947662e+125  2.1268273662694399e+125  2.0786168969893605e+125  2.0316260437920878e+125  1.9858204855437261e+125  1.9411669711065556e+125  1.8976332825541303e+125  1.8551881997740233e+125  1.8138014664010573e+125  1.7734437570264361e+125  1.7340866456306091e+125  1.6957025751900336e+125  1.6582648284101832e+125  1.6217474995392727e+125  1.5861254672191644e+125  1.5513743683318095e+125  1.5174705728014117e+125  1.4843911593142172e+125  1.4521138919194823e+125  1.4206171974767638e+125  1.3898801439161400e+125  1.3598824192794147e+125  1.3306043115117374e+125  1.3020266889743376e+125  1.2741309816503308e+125  1.2468991630167458e+125  1.2203137325570219e+125  1.1943576988893444e+125  1.1690145634871736e+125  1.1442683049693252e+125  1.1201033639379159e+125  1.0965046283433534e+125  1.0734574193564167e+125  1.0509474777283107e+125  1.0289609506203291e+125  1.0074843788855351e+125  9.8650468478556887e+124  9.6600916012638220e+124  9.4598545479734312e+124  9.2642156569879649e+124  9.0730582604375508e+124  8.8862689501995403e+124  8.7037374779908066e+124  8.5253566588048741e+124  8.3510222775720912e+124  8.1806329989259105e+124  8.0140902799628292e+124  7.8512982858879445e+124  7.6921638084424975e+124  7.5365961870135523e+124  7.3845072323299637e+124  7.2358111526525161e+124  7.0904244823695632e+124  6.9482660129130712e+124  6.8092567259130738e+124  6.6733197285117155e+124  6.5403801907611489e+124  6.4103652850323161e+124  6.2832041273644599e+124  6.1588277206878957e+124  6.0371688998550293e+124  5.9181622784170963e+124  5.8017441970864008e+124  5.6878526738261824e+124  5.5764273555122192e+124  5.4674094711125084e+124  5.3607417863332272e+124  5.2563685596811840e+124  5.1542354998947236e+124  5.0542897246968670e+124  4.9564797208260699e+124  4.8607553053017516e+124  4.7670675878831476e+124  4.6753689346816377e+124  4.5856129328881138e+124  4.4977543565782668e+124  4.4117491335602313e+124  4.3275543132299443e+124  4.2451280354011444e+124  4.1644295000779117e+124  4.0854189381388822e+124  4.0080575829032947e+124  3.9323076425501789e+124  3.8581322733628938e+124  3.7854955537722802e+124  3.7143624591725730e+124  3.6446988374851908e+124  3.5764713854462876e+124  3.5096476255949046e+124  3.4441958839392401e+124  3.3800852682794500e+124  3.3172856471660455e+124  3.2557676294737132e+124  3.1955025445710738e+124  3.1364624230675340e+124  3.0786199781190945e+124  3.0219485872754969e+124  2.9664222748517942e+124  2.9120156948078705e+124  2.8587041141201500e+124  2.8064633966301461e+124  2.7552699873550570e+124  2.7051008972460941e+124  2.6559336883807589e+124  2.6077464595756443e+124  2.5605178324069148e+124  2.5142269376258949e+124  2.4688534019577378e+124  2.4243773352714890e+124  2.3807793181102039e+124  2.3380403895702589e+124  2.2961420355192220e+124  2.2550661771421098e+124  2.2147951598060934e+124  2.1753117422341037e+124  2.1365990859780963e+124  2.0986407451829538e+124  2.0614206566324198e+124  2.0249231300686188e+124  1.9891328387770513e+124  1.9540348104292201e+124  1.9196144181752345e+124  1.8858573719790565e+124  1.8527497101892137e+124  1.8202777913380931e+124  1.7884282861631231e+124  1.7571881698433386e+124  1.7265447144450786e+124  1.6964854815706915e+124  1.6669983152044174e+124  1.6380713347496818e+124  1.6096929282522948e+124  1.5818517458042283e+124  1.5545366931226999e+124  1.5277369252996195e+124  1.5014418407164672e+124  1.4756410751198972e+124  1.4503244958534883e+124  1.4254821962411842e+124  1.4011044901181480e+124  1.3771819065048248e+124  1.3537051844201859e+124  1.3306652678302379e+124  1.3080533007279715e+124  1.2858606223410851e+124  1.2640787624638693e+124  1.2426994369098336e+124  1.2217145430816638e+124  1.2011161556552584e+124  1.1808965223746978e+124  1.1610480599550424e+124  1.1415633500899984e+124  1.1224351355615471e+124  1.1036563164487426e+124  1.0852199464329473e+124  1.0671192291968447e+124  1.0493475149147097e+124  1.0318982968313946e+124  1.0147652079276361e+124  9.9794201766935337e+123  9.8142262883862608e+123  9.6520107444416277e+123  9.4927151470909969e+123  9.3362823413406965e+123  9.1826563863348039e+123  9.0317825274305745e+123  8.8836071689674713e+123  8.7380778477110057e+123  8.5951432069537587e+123  8.4547529712556396e+123  8.3168579218067124e+123  8.1814098723960136e+123  8.0483616459701673e+123  7.9176670517664336e+123  7.7892808630048380e+123  7.6631587951248490e+123  7.5392574845521628e+123  7.4175344679817252e+123  7.2979481621636188e+123  7.1804578441784726e+123  7.0650236321898259e+123  6.9516064666609172e+123  6.8401680920238606e+123  6.7306710387896155e+123  6.6230786060871119e+123  6.5173548446207501e+123  6.4134645400352298e+123  6.3113731966773547e+123  6.2110470217447214e+123  6.1124529098111583e+123  6.0155584277195282e+123  5.9203317998322972e+123  5.8267418936309514e+123  5.7347582056552564e+123  5.6443508477738201e+123  5.5554905337775423e+123  5.4681485662877320e+123  5.3822968239711111e+123  5.2979077490537882e+123  5.2149543351267903e+123  5.1334101152358841e+123  5.0532491502484045e+123  4.9744460174903739e+123  4.8969757996470003e+123  4.8208140739200359e+123  4.7459369014357043e+123  4.6723208168968486e+123  4.5999428184733553e+123  4.5287803579248424e+123  4.4588113309500501e+123  4.3900140677571898e+123  4.3223673238498862e+123  4.2558502710234326e+123  4.1904424885661656e+123  4.1261239546610012e+123  4.0628750379821771e+123  4.0006764894824857e+123  3.9395094343663538e+123  3.8793553642442387e+123  3.8201961294640041e+123  3.7620139316148850e+123  3.7047913161999852e+123  3.6485111654731764e+123  3.5931566914364370e+123  3.5387114289938352e+123  3.4851592292583174e+123  3.4324842530077187e+123  3.3806709642863612e+123  3.3297041241488049e+123  3.2795687845423688e+123  3.2302502823250791e+123  3.1817342334158773e+123  3.1340065270739215e+123  3.0870533203039289e+123  3.0408610323846231e+123  2.9954163395172899e+123  2.9507061695917268e+123  2.9067176970667232e+123  2.8634383379624820e+123  2.8208557449622588e+123  2.7789578026207369e+123  2.7377326226766504e+123  2.6971685394671292e+123  2.6572541054415397e+123  2.6179780867723990e+123  2.5793294590611346e+123  2.5412974031365563e+123  2.5038713009437885e+123  2.4670407315216841e+123  2.4307954670666022e+123  2.3951254690805863e+123  2.3600208846020326e+123  2.3254720425169089e+123  2.2914694499487116e+123  2.2580037887253545e+123  2.2250659119212375e+123  2.1926468404727587e+123  2.1607377598656223e+123  2.1293300168923140e+123  2.0984151164781286e+123  2.0679847185742411e+123  2.0380306351162467e+123  2.0085448270467216e+123  1.9795194014004026e+123  1.9509466084504859e+123  1.9228188389147589e+123  1.8951286212201783e+123  1.8678686188245787e+123  1.8410316275942801e+123  1.8146105732362813e+123  1.7885985087838896e+123  1.7629886121345379e+123  1.7377741836386815e+123  1.7129486437385984e+123  1.6885055306560142e+123  1.6644384981274635e+123  1.6407413131863215e+123  1.6174078539905095e+123  1.5944321076948322e+123  1.5718081683669793e+123  1.5495302349462475e+123  1.5275926092440122e+123  1.5059896939850885e+123  1.4847159908890172e+123  1.4637660987904792e+123  1.4431347117979255e+123  1.4228166174896175e+123  1.4028066951462822e+123  1.3830999140195447e+123  1.3636913316354065e+123  1.3445760921319809e+123  1.3257494246307603e+123  1.3072066416406978e+123  1.2889431374943705e+123  1.2709543868155755e+123  1.2532359430176432e+123  1.2357834368318266e+123  1.2185925748651450e+123  1.2016591381870014e+123  1.1849789809440136e+123  1.1685480290024195e+123  1.1523622786174844e+123  1.1364177951293402e+123  1.1207107116846869e+123  1.1052372279838216e+123  1.0899936090524317e+123  1.0749761840376686e+123  1.0601813450279534e+123  1.0456055458960297e+123  1.0312453011647851e+123  1.0170971848953403e+123  1.0031578295969621e+123  9.8942392515831872e+122  9.7589221779965083e+122  9.6255950904541735e+122  9.4942265471697539e+122  9.3647856394490020e+122  9.2372419820050848e+122  9.1115657034621707e+122  8.9877274370432193e+122  8.8656983114381900e+122  8.7454499418491564e+122  8.6269544212082894e+122  8.5101843115655547e+122  8.3951126356423238e+122  8.2817128685476013e+122  8.1699589296535665e+122  8.0598251746270346e+122  7.9512863876138106e+122  7.8443177735726558e+122  7.7388949507558642e+122  7.6349939433335594e+122  7.5325911741585315e+122  7.4316634576690580e+122  7.3321879929266371e+122  7.2341423567861197e+122  7.1375044971953955e+122  7.0422527266220266e+122  6.9483657156044001e+122  6.8558224864246859e+122  6.7646024069013386e+122  6.6746851842985728e+122  6.5860508593505224e+122  6.4986798003978671e+122  6.4125526976345089e+122  6.3276505574622469e+122  6.2439546969511411e+122  6.1614467384036021e+122  6.0801086040200532e+122  5.9999225106640969e+122  5.9208709647253801e+122  5.8429367570779708e+122  5.7661029581325859e+122  5.6903529129806574e+122  5.6156702366284494e+122  5.5420388093195231e+122  5.4694427719436863e+122  5.3978665215308174e+122  5.3272947068278348e+122  5.2577122239571969e+122  5.1891042121553692e+122  5.1214560495896082e+122  5.0547533492515911e+122  4.9889819549263480e+122  4.9241279372350896e+122  4.8601775897504153e+122  4.7971174251824988e+122  4.7349341716349428e+122  4.6736147689288249e+122  4.6131463649937578e+122  4.5535163123245313e+122  4.4947121645021241e+122  4.4367216727778712e+122  4.3795327827194945e+122  4.3231336309178715e+122  4.2675125417533253e+122  4.2126580242202797e+122  4.1585587688092401e+122  4.1052036444448855e+122  4.0525816954792984e+122  4.0006821387391643e+122  3.9494943606260554e+122  3.8990079142686358e+122  3.8492125167258831e+122  3.8000980462403713e+122  3.7516545395405431e+122  3.7038721891912064e+122  3.6567413409912039e+122  3.6102524914174079e+122  3.5643962851142155e+122  3.5191635124275629e+122  3.4745451069827526e+122  3.4305321433051318e+122  3.3871158344829598e+122  3.3442875298715449e+122  3.3020387128379304e+122  3.2603609985453703e+122  3.2192461317768110e+122  3.1786859847967187e+122  3.1386725552504654e+122  3.0991979641005742e+122  3.0602544535992175e+122  3.0218343852961669e+122  2.9839302380816363e+122  2.9465346062633255e+122  2.9096401976770244e+122  2.8732398318301900e+122  2.8373264380778220e+122  2.8018930538301113e+122  2.7669328227912095e+122  2.7324389932285976e+122  2.6984049162724584e+122  2.6648240442444795e+122  2.6316899290156053e+122  2.5989962203921557e+122  2.5667366645298097e+122  2.5349051023749358e+122  2.5034954681327676e+122  2.4725017877619250e+122  2.4419181774948465e+122  2.4117388423835867e+122  2.3819580748705603e+122  2.3525702533837800e+122  2.3235698409561136e+122  2.2949513838681659e+122  2.2667095103143053e+122  2.2388389290914728e+122  2.2113344283102978e+122  2.1841908741281582e+122  2.1574032095037954e+122  2.1309664529730540e+122  2.1048756974454075e+122  2.0791261090208467e+122  2.0537129258268482e+122  2.0286314568749424e+122  2.0038770809366442e+122  1.9794452454383303e+122  1.9553314653747247e+122  1.9315313222407156e+122  1.9080404629811041e+122  1.8848545989580081e+122  1.8619695049356020e+122  1.8393810180818544e+122  1.8170850369870185e+122  1.7950775206985149e+122  1.7733544877719454e+122  1.7519120153379654e+122  1.7307462381846836e+122  1.7098533478553897e+122  1.6892295917612665e+122  1.6688712723088638e+122  1.6487747460420629e+122  1.6289364227982590e+122  1.6093527648785558e+122  1.5900202862316695e+122  1.5709355516513467e+122  1.5520951759870350e+122  1.5334958233675662e+122  1.5151342064376669e+122  1.4970070856070206e+122  1.4791112683116918e+122  1.4614436082876874e+122  1.4440010048564346e+122  1.4267804022220052e+122  1.4097787887798268e+122  1.3929931964367252e+122  1.3764206999420698e+122  1.3600584162298705e+122  1.3439035037715821e+122  1.3279531619394706e+122  1.3122046303803571e+122  1.2966551883995246e+122  1.2813021543546687e+122  1.2661428850596670e+122  1.2511747751980171e+122  1.2363952567457976e+122  1.2218017984039453e+122  1.2073919050397360e+122  1.1931631171372711e+122  1.1791130102568408e+122  1.1652391945030055e+122  1.1515393140012276e+122  1.1380110463829533e+122  1.1246521022789433e+122  1.1114602248207563e+122  1.0984331891502284e+122  1.0855688019368002e+122  1.0728649009025940e+122  1.0603193543550692e+122  1.0479300607271562e+122  1.0356949481247290e+122  1.0236119738812826e+122  1.0116791241197305e+122  9.9989441332115523e+121  9.8825588390042958e+121  9.7676160578856211e+121  9.6540967602169830e+121  9.5419821833661708e+121  9.4312538277263713e+121  9.3218934527982966e+121  9.2138830733341890e+121  9.1072049555428135e+121  9.0018416133542175e+121  8.8977758047434715e+121  8.7949905281122358e+121  8.6934690187272883e+121  8.5931947452150523e+121  8.4941514061111184e+121  8.3963229264639286e+121  8.2996934544917856e+121  8.2042473582919852e+121  8.1099692226016475e+121  8.0168438456090916e+121  7.9248562358149717e+121  7.8339916089424306e+121  7.7442353848953263e+121  7.6555731847639651e+121  7.5679908278772362e+121  7.4814743289006849e+121  7.3960098949796289e+121  7.3115839229264922e+121  7.2281829964518764e+121  7.1457938834383858e+121  7.0644035332566509e+121  6.9839990741228995e+121  6.9045678104971791e+121  6.8260972205218890e+121  6.7485749534996564e+121  6.6719888274101080e+121  6.5963268264647988e+121  6.5215770986997855e+121  6.4477279536051001e+121  6.3747678597905967e+121  6.3026854426876016e+121  6.2314694822857141e+121  6.1611089109043079e+121  6.0915928109979887e+121  6.0229104129956445e+121  5.9550510931724439e+121  5.8880043715542168e+121  5.8217599098538635e+121  5.7563075094390433e+121  5.6916371093308152e+121  5.6277387842326736e+121  5.5646027425894533e+121  5.5022193246757394e+121  5.4405790007131355e+121  5.3796723690161028e+121  5.3194901541657797e+121  5.2600232052113947e+121  5.2012624938988672e+121  5.1431991129260668e+121  5.0858242742243693e+121  5.0291293072661067e+121  4.9731056573974327e+121  4.9177448841962669e+121  4.8630386598548690e+121  4.8089787675867054e+121  4.7555571000570989e+121  4.7027656578375199e+121  4.6505965478828667e+121  4.5990419820315750e+121  4.5480942755281024e+121  4.4977458455674443e+121  4.4479892098613877e+121  4.3988169852260900e+121  4.3502218861906484e+121  4.3021967236264282e+121  4.2547344033966569e+121  4.2078279250261521e+121  4.1614703803907174e+121  4.1156549524259698e+121  4.0703749138553052e+121  4.0256236259366037e+121  3.9813945372275693e+121  3.9376811823692002e+121  3.8944771808872480e+121  3.8517762360113337e+121  3.8095721335114497e+121  3.7678587405515953e+121  3.7266300045602609e+121  3.6858799521174816e+121  3.6456026878582704e+121  3.6057923933920662e+121  3.5664433262380823e+121  3.5275498187761