<?xml version="1.0"?>
<VTKFile type="UnstructuredGrid"  version="0.1"  >
<UnstructuredGrid>
<Piece  NumberOfPoints="20001" NumberOfCells="20000">
<Points>
<DataArray  type="Float64"  NumberOfComponents="3"  format="ascii">0 0 0  5e-05 0 0  0.0001 0 0  0.00015 0 0  0.0002 0 0  0.00025 0 0  0.0003 0 0  0.00035 0 0  0.0004 0 0  0.00045 0 0  0.0005 0 0  0.00055 0 0  0.0005999999999999999 0 0  0.00065 0 0  0.0007 0 0  0.00075 0 0  0.0008 0 0  0.00085 0 0  0.0009 0 0  0.00095 0 0  0.001 0 0  0.00105 0 0  0.0011 0 0  0.00115 0 0  0.0012 0 0  0.00125 0 0  0.0013 0 0  0.00135 0 0  0.0014 0 0  0.00145 0 0  0.0015 0 0  0.00155 0 0  0.0016 0 0  0.00165 0 0  0.0017 0 0  0.00175 0 0  0.0018 0 0  0.00185 0 0  0.0019 0 0  0.00195 0 0  0.002 0 0  0.00205 0 0  0.0021 0 0  0.00215 0 0  0.0022 0 0  0.00225 0 0  0.0023 0 0  0.00235 0 0  0.0024 0 0  0.00245 0 0  0.0025 0 0  0.00255 0 0  0.0026 0 0  0.00265 0 0  0.0027 0 0  0.00275 0 0  0.0028 0 0  0.00285 0 0  0.0029 0 0  0.00295 0 0  0.003 0 0  0.00305 0 0  0.0031 0 0  0.00315 0 0  0.0032 0 0  0.00325 0 0  0.0033 0 0  0.00335 0 0  0.0034 0 0  0.00345 0 0  0.0035 0 0  0.00355 0 0  0.0036 0 0  0.00365 0 0  0.0037 0 0  0.00375 0 0  0.0038 0 0  0.00385 0 0  0.0039 0 0  0.00395 0 0  0.004 0 0  0.00405 0 0  0.0041 0 0  0.00415 0 0  0.0042 0 0  0.00425 0 0  0.0043 0 0  0.00435 0 0  0.0044 0 0  0.00445 0 0  0.0045 0 0  0.00455 0 0  0.0046 0 0  0.00465 0 0  0.0047 0 0  0.00475 0 0  0.0048 0 0  0.00485 0 0  0.0049 0 0  0.00495 0 0  0.005 0 0  0.00505 0 0  0.0051 0 0  0.00515 0 0  0.0052 0 0  0.00525 0 0  0.0053 0 0  0.00535 0 0  0.0054 0 0  0.00545 0 0  0.0055 0 0  0.00555 0 0  0.0056 0 0  0.00565 0 0  0.0057 0 0  0.00575 0 0  0.0058 0 0  0.00585 0 0  0.0059 0 0  0.00595 0 0  0.006 0 0  0.00605 0 0  0.0061 0 0  0.00615 0 0  0.0062 0 0  0.00625 0 0  0.0063 0 0  0.00635 0 0  0.0064 0 0  0.00645 0 0  0.0065 0 0  0.00655 0 0  0.0066 0 0  0.00665 0 0  0.0067 0 0  0.00675 0 0  0.0068 0 0  0.00685 0 0  0.0069 0 0  0.00695 0 0  0.007 0 0  0.00705 0 0  0.0071 0 0  0.00715 0 0  0.0072 0 0  0.00725 0 0  0.0073 0 0  0.00735 0 0  0.0074 0 0  0.00745 0 0  0.0075 0 0  0.00755 0 0  0.0076 0 0  0.00765 0 0  0.0077 0 0  0.00775 0 0  0.0078 0 0  0.007849999999999999 0 0  0.007900000000000001 0 0  0.00795 0 0  0.008 0 0  0.00805 0 0  0.0081 0 0  0.008149999999999999 0 0  0.008200000000000001 0 0  0.00825 0 0  0.0083 0 0  0.00835 0 0  0.008399999999999999 0 0  0.008449999999999999 0 0  0.008500000000000001 0 0  0.00855 0 0  0.0086 0 0  0.00865 0 0  0.008699999999999999 0 0  0.008750000000000001 0 0  0.008800000000000001 0 0  0.00885 0 0  0.0089 0 0  0.00895 0 0  0.008999999999999999 0 0  0.009050000000000001 0 0  0.0091 0 0  0.00915 0 0  0.0092 0 0  0.00925 0 0  0.009299999999999999 0 0  0.009350000000000001 0 0  0.0094 0 0  0.00945 0 0  0.0095 0 0  0.009549999999999999 0 0  0.009599999999999999 0 0  0.009650000000000001 0 0  0.0097 0 0  0.00975 0 0  0.0098 0 0  0.009849999999999999 0 0  0.009900000000000001 0 0  0.009950000000000001 0 0  0.01 0 0  0.01005 0 0  0.0101 0 0  0.01015 0 0  0.0102 0 0  0.01025 0 0  0.0103 0 0  0.01035 0 0  0.0104 0 0  0.01045 0 0  0.0105 0 0  0.01055 0 0  0.0106 0 0  0.01065 0 0  0.0107 0 0  0.01075 0 0  0.0108 0 0  0.01085 0 0  0.0109 0 0  0.01095 0 0  0.011 0 0  0.01105 0 0  0.0111 0 0  0.01115 0 0  0.0112 0 0  0.01125 0 0  0.0113 0 0  0.01135 0 0  0.0114 0 0  0.01145 0 0  0.0115 0 0  0.01155 0 0  0.0116 0 0  0.01165 0 0  0.0117 0 0  0.01175 0 0  0.0118 0 0  0.01185 0 0  0.0119 0 0  0.01195 0 0  0.012 0 0  0.01205 0 0  0.0121 0 0  0.01215 0 0  0.0122 0 0  0.01225 0 0  0.0123 0 0  0.01235 0 0  0.0124 0 0  0.01245 0 0  0.0125 0 0  0.01255 0 0  0.0126 0 0  0.01265 0 0  0.0127 0 0  0.01275 0 0  0.0128 0 0  0.01285 0 0  0.0129 0 0  0.01295 0 0  0.013 0 0  0.01305 0 0  0.0131 0 0  0.01315 0 0  0.0132 0 0  0.01325 0 0  0.0133 0 0  0.01335 0 0  0.0134 0 0  0.01345 0 0  0.0135 0 0  0.01355 0 0  0.0136 0 0  0.01365 0 0  0.0137 0 0  0.01375 0 0  0.0138 0 0  0.01385 0 0  0.0139 0 0  0.01395 0 0  0.014 0 0  0.01405 0 0  0.0141 0 0  0.01415 0 0  0.0142 0 0  0.01425 0 0  0.0143 0 0  0.01435 0 0  0.0144 0 0  0.01445 0 0  0.0145 0 0  0.01455 0 0  0.0146 0 0  0.01465 0 0  0.0147 0 0  0.01475 0 0  0.0148 0 0  0.01485 0 0  0.0149 0 0  0.01495 0 0  0.015 0 0  0.01505 0 0  0.0151 0 0  0.01515 0 0  0.0152 0 0  0.01525 0 0  0.0153 0 0  0.01535 0 0  0.0154 0 0  0.01545 0 0  0.0155 0 0  0.01555 0 0  0.0156 0 0  0.01565 0 0  0.0157 0 0  0.01575 0 0  0.0158 0 0  0.01585 0 0  0.0159 0 0  0.01595 0 0  0.016 0 0  0.01605 0 0  0.0161 0 0  0.01615 0 0  0.0162 0 0  0.01625 0 0  0.0163 0 0  0.01635 0 0  0.0164 0 0  0.01645 0 0  0.0165 0 0  0.01655 0 0  0.0166 0 0  0.01665 0 0  0.0167 0 0  0.01675 0 0  0.0168 0 0  0.01685 0 0  0.0169 0 0  0.01695 0 0  0.017 0 0  0.01705 0 0  0.0171 0 0  0.01715 0 0  0.0172 0 0  0.01725 0 0  0.0173 0 0  0.01735 0 0  0.0174 0 0  0.01745 0 0  0.0175 0 0  0.01755 0 0  0.0176 0 0  0.01765 0 0  0.0177 0 0  0.01775 0 0  0.0178 0 0  0.01785 0 0  0.0179 0 0  0.01795 0 0  0.018 0 0  0.01805 0 0  0.0181 0 0  0.01815 0 0  0.0182 0 0  0.01825 0 0  0.0183 0 0  0.01835 0 0  0.0184 0 0  0.01845 0 0  0.0185 0 0  0.01855 0 0  0.0186 0 0  0.01865 0 0  0.0187 0 0  0.01875 0 0  0.0188 0 0  0.01885 0 0  0.0189 0 0  0.01895 0 0  0.019 0 0  0.01905 0 0  0.0191 0 0  0.01915 0 0  0.0192 0 0  0.01925 0 0  0.0193 0 0  0.01935 0 0  0.0194 0 0  0.01945 0 0  0.0195 0 0  0.01955 0 0  0.0196 0 0  0.01965 0 0  0.0197 0 0  0.01975 0 0  0.0198 0 0  0.01985 0 0  0.0199 0 0  0.01995 0 0  0.02 0 0  0.02005 0 0  0.0201 0 0  0.02015 0 0  0.0202 0 0  0.02025 0 0  0.0203 0 0  0.02035 0 0  0.0204 0 0  0.02045 0 0  0.0205 0 0  0.02055 0 0  0.0206 0 0  0.02065 0 0  0.0207 0 0  0.02075 0 0  0.0208 0 0  0.02085 0 0  0.0209 0 0  0.02095 0 0  0.021 0 0  0.02105 0 0  0.0211 0 0  0.02115 0 0  0.0212 0 0  0.02125 0 0  0.0213 0 0  0.02135 0 0  0.0214 0 0  0.02145 0 0  0.0215 0 0  0.02155 0 0  0.0216 0 0  0.02165 0 0  0.0217 0 0  0.02175 0 0  0.0218 0 0  0.02185 0 0  0.0219 0 0  0.02195 0 0  0.022 0 0  0.02205 0 0  0.0221 0 0  0.02215 0 0  0.0222 0 0  0.02225 0 0  0.0223 0 0  0.02235 0 0  0.0224 0 0  0.02245 0 0  0.0225 0 0  0.02255 0 0  0.0226 0 0  0.02265 0 0  0.0227 0 0  0.02275 0 0  0.0228 0 0  0.02285 0 0  0.0229 0 0  0.02295 0 0  0.023 0 0  0.02305 0 0  0.0231 0 0  0.02315 0 0  0.0232 0 0  0.02325 0 0  0.0233 0 0  0.02335 0 0  0.0234 0 0  0.02345 0 0  0.0235 0 0  0.02355 0 0  0.0236 0 0  0.02365 0 0  0.0237 0 0  0.02375 0 0  0.0238 0 0  0.02385 0 0  0.0239 0 0  0.02395 0 0  0.024 0 0  0.02405 0 0  0.0241 0 0  0.02415 0 0  0.0242 0 0  0.02425 0 0  0.0243 0 0  0.02435 0 0  0.0244 0 0  0.02445 0 0  0.0245 0 0  0.02455 0 0  0.0246 0 0  0.02465 0 0  0.0247 0 0  0.02475 0 0  0.0248 0 0  0.02485 0 0  0.0249 0 0  0.02495 0 0  0.025 0 0  0.02505 0 0  0.0251 0 0  0.02515 0 0  0.0252 0 0  0.02525 0 0  0.0253 0 0  0.02535 0 0  0.0254 0 0  0.02545 0 0  0.0255 0 0  0.02555 0 0  0.0256 0 0  0.02565 0 0  0.0257 0 0  0.02575 0 0  0.0258 0 0  0.02585 0 0  0.0259 0 0  0.02595 0 0  0.026 0 0  0.02605 0 0  0.0261 0 0  0.02615 0 0  0.0262 0 0  0.02625 0 0  0.0263 0 0  0.02635 0 0  0.0264 0 0  0.02645 0 0  0.0265 0 0  0.02655 0 0  0.0266 0 0  0.02665 0 0  0.0267 0 0  0.02675 0 0  0.0268 0 0  0.02685 0 0  0.0269 0 0  0.02695 0 0  0.027 0 0  0.02705 0 0  0.0271 0 0  0.02715 0 0  0.0272 0 0  0.02725 0 0  0.0273 0 0  0.02735 0 0  0.0274 0 0  0.02745 0 0  0.0275 0 0  0.02755 0 0  0.0276 0 0  0.02765 0 0  0.0277 0 0  0.02775 0 0  0.0278 0 0  0.02785 0 0  0.0279 0 0  0.02795 0 0  0.028 0 0  0.02805 0 0  0.0281 0 0  0.02815 0 0  0.0282 0 0  0.02825 0 0  0.0283 0 0  0.02835 0 0  0.0284 0 0  0.02845 0 0  0.0285 0 0  0.02855 0 0  0.0286 0 0  0.02865 0 0  0.0287 0 0  0.02875 0 0  0.0288 0 0  0.02885 0 0  0.0289 0 0  0.02895 0 0  0.029 0 0  0.02905 0 0  0.0291 0 0  0.02915 0 0  0.0292 0 0  0.02925 0 0  0.0293 0 0  0.02935 0 0  0.0294 0 0  0.02945 0 0  0.0295 0 0  0.02955 0 0  0.0296 0 0  0.02965 0 0  0.0297 0 0  0.02975 0 0  0.0298 0 0  0.02985 0 0  0.0299 0 0  0.02995 0 0  0.03 0 0  0.03005 0 0  0.0301 0 0  0.03015 0 0  0.0302 0 0  0.03025 0 0  0.0303 0 0  0.03035 0 0  0.0304 0 0  0.03045 0 0  0.0305 0 0  0.03055 0 0  0.0306 0 0  0.03065 0 0  0.0307 0 0  0.03075 0 0  0.0308 0 0  0.03085 0 0  0.0309 0 0  0.03095 0 0  0.031 0 0  0.03105 0 0  0.0311 0 0  0.03115 0 0  0.0312 0 0  0.03125 0 0  0.0313 0 0  0.03135 0 0  0.0314 0 0  0.03145 0 0  0.0315 0 0  0.03155 0 0  0.0316 0 0  0.03165 0 0  0.0317 0 0  0.03175 0 0  0.0318 0 0  0.03185 0 0  0.0319 0 0  0.03195 0 0  0.032 0 0  0.03205 0 0  0.0321 0 0  0.03215 0 0  0.0322 0 0  0.03225 0 0  0.0323 0 0  0.03235 0 0  0.0324 0 0  0.03245 0 0  0.0325 0 0  0.03255 0 0  0.0326 0 0  0.03265 0 0  0.0327 0 0  0.03275 0 0  0.0328 0 0  0.03285 0 0  0.0329 0 0  0.03295 0 0  0.033 0 0  0.03305 0 0  0.0331 0 0  0.03315 0 0  0.0332 0 0  0.03325 0 0  0.0333 0 0  0.03335 0 0  0.0334 0 0  0.03345 0 0  0.0335 0 0  0.03355 0 0  0.0336 0 0  0.03365 0 0  0.0337 0 0  0.03375 0 0  0.0338 0 0  0.03385 0 0  0.0339 0 0  0.03395 0 0  0.034 0 0  0.03405 0 0  0.0341 0 0  0.03415 0 0  0.0342 0 0  0.03425 0 0  0.0343 0 0  0.03435 0 0  0.0344 0 0  0.03445 0 0  0.0345 0 0  0.03455 0 0  0.0346 0 0  0.03465 0 0  0.0347 0 0  0.03475 0 0  0.0348 0 0  0.03485 0 0  0.0349 0 0  0.03495 0 0  0.035 0 0  0.03505 0 0  0.0351 0 0  0.03515 0 0  0.0352 0 0  0.03525 0 0  0.0353 0 0  0.03535 0 0  0.0354 0 0  0.03545 0 0  0.0355 0 0  0.03555 0 0  0.0356 0 0  0.03565 0 0  0.0357 0 0  0.03575 0 0  0.0358 0 0  0.03585 0 0  0.0359 0 0  0.03595 0 0  0.036 0 0  0.03605 0 0  0.0361 0 0  0.03615 0 0  0.0362 0 0  0.03625 0 0  0.0363 0 0  0.03635 0 0  0.0364 0 0  0.03645 0 0  0.0365 0 0  0.03655 0 0  0.0366 0 0  0.03665 0 0  0.0367 0 0  0.03675 0 0  0.0368 0 0  0.03685 0 0  0.0369 0 0  0.03695 0 0  0.037 0 0  0.03705 0 0  0.0371 0 0  0.03715 0 0  0.0372 0 0  0.03725 0 0  0.0373 0 0  0.03735 0 0  0.0374 0 0  0.03745 0 0  0.0375 0 0  0.03755 0 0  0.0376 0 0  0.03765 0 0  0.0377 0 0  0.03775 0 0  0.0378 0 0  0.03785 0 0  0.0379 0 0  0.03795 0 0  0.038 0 0  0.03805 0 0  0.0381 0 0  0.0
[...]
<PointData  Scalars="f_13"> 
<DataArray  type="Float64"  Name="f_13"  format="ascii">5.2120732762030632e+27  2.2265241426273606e+23  9.6323936424103141e+22  5.6907712128521152e+22  3.8357112717404191e+22  2.7844089601140378e+22  2.1206886875276656e+22  1.6707817168443609e+22  1.3499886120512568e+22  1.1124170245947890e+22  9.3120248429312664e+21  7.8966093979858900e+21  6.7693453925243337e+21  5.8568352677440447e+21  5.1078767946035605e+21  4.4857911045119720e+21  3.9637007525786839e+21  3.5215206390729021e+21  3.1439822008651974e+21  2.8193018301667921e+21  2.5382626957856279e+21  2.2935686612465471e+21  2.0793813724728569e+21  1.8909831582933569e+21  1.7245279262168027e+21  1.5768546193879450e+21  1.4453458189972349e+21  1.3278193702714957e+21  1.2224444677576597e+21  1.1276760654871613e+21  1.0422031621726838e+21  9.6490769561762398e+20  8.9483162339069932e+20  8.3115037395715595e+20  7.7315129462432819e+20  7.2021604799708371e+20  6.7180615032165001e+20  6.2745102625510300e+20  5.8673809153995178e+20  5.4930447940631947e+20  5.1483010662585126e+20  4.8303183706978563e+20  4.5365854882307355e+20  4.2648694865896158e+20  4.0131800742668114e+20  3.7797391348011493e+20  3.5629546006029769e+20  3.3613979759031229e+20  3.1737849395151228e+20  2.9989585560373723e+20  2.8358747036817883e+20  2.6835893918254252e+20  2.5412476945578960e+20  2.4080740702337509e+20  2.2833638731479518e+20  2.1664758933729247e+20  2.0568257856750725e+20  1.9538802691860873e+20  1.8571519968789234e+20  1.7661950084867978e+20  1.6806006927895760e+20  1.5999941955688576e+20  1.5240312183222206e+20  1.4523951602914987e+20  1.3847945627159360e+20  1.3209608196467443e+20  1.2606461243026650e+20  1.2036216239287242e+20  1.1496757595443408e+20  1.0986127699172100e+20  1.0502513416468616e+20  1.0044233894461591e+20  9.6097295262031512e+19  9.1975519540341850e+19  8.8063550025778102e+19  8.4348864450171126e+19  8.0819805173238809e+19  7.7465511047404438e+19  7.4275855332636017e+19  7.1241389062968214e+19  6.8353289331600982e+19  6.5603312018932965e+19  6.2983748538586874e+19  6.0487386221275767e+19  5.8107471995996660e+19  5.5837679063159316e+19  5.3672076285423714e+19  5.1605100049709343e+19  4.9631528378478756e+19  4.7746457090343903e+19  4.5945277829622571e+19  4.4223657801955647e+19  4.2577521068729459e+19  4.1003031267041944e+19  3.9496575634495398e+19  3.8054750229350875e+19  3.6674346246688326e+19  3.5352337340306338e+19  3.4085867868276347e+19  3.2872241987438293e+19  3.1708913528775217e+19  3.0593476591606473e+19  2.9523656799965688e+19  2.8497303169437692e+19  2.7512380537171718e+19  2.6566962511816479e+19  2.5659224903775232e+19  2.4787439599494775e+19  2.3949968846517281e+19  2.3145259918763000e+19  2.2371840134006338e+19  2.1628312197780574e+19  2.0913349850017001e+19  2.0225693792613736e+19  1.9564147877855678e+19  1.8927575539182649e+19  1.8314896447244593e+19  1.7725083375501787e+19  1.7157159260836108e+19  1.6610194445745744e+19  1.6083304089711337e+19  1.5575645738252419e+19  1.5086417039048671e+19  1.4614853595285932e+19  1.4160226947109425e+19  1.3721842672731681e+19  1.3299038601354140e+19  1.2891183130625184e+19  1.2497673641876972e+19  1.2117935006862371e+19  1.1751418180155417e+19  1.1397598871787196e+19  1.1055976295065862e+19  1.0726071984878160e+19  1.0407428682092366e+19  1.0099609279980863e+19  9.8021958288566231e+18  9.5147885953739284e+18  9.2370051731807539e+18  8.9684796418300559e+18  8.7088617710613955e+18  8.4578162677536236e+18  8.2150220630250783e+18  7.9801716371214889e+18  7.7529703798832343e+18  7.5331359847253340e+18  7.3203978741945539e+18  7.1144966552905718e+18  6.9151836028521359e+18  6.7222201694150892e+18  6.5353775200481792e+18  6.3544360907649270e+18  6.1791851691956490e+18  6.0094224962843003e+18  5.8449538878496451e+18  5.6855928749202995e+18  5.5311603618186824e+18  5.3814843010301993e+18  5.2363993839509197e+18  5.0957467466608159e+18  4.9593736899195085e+18  4.8271334126285271e+18  4.6988847580478659e+18  4.5744919720958705e+18  4.4538244730999951e+18  4.3367566324021586e+18  4.2231675652563077e+18  4.1129409314876800e+18  4.0059647454130575e+18  3.9021311945493786e+18  3.8013364666643896e+18  3.7034805847477873e+18  3.6084672495045135e+18  3.5162036889937946e+18  3.4266005150579907e+18  3.3395715862047386e+18  3.2550338766240461e+18  3.1729073510390666e+18  3.0931148451055508e+18  3.0155819510900296e+18  2.9402369085711759e+18  2.8670104999222907e+18  2.7958359503455401e+18  2.7266488322405601e+18  2.6593869737014231e+18  2.5939903709465774e+18  2.5304011044964849e+18  2.4685632589231539e+18  2.4084228460048215e+18  2.3499277311274051e+18  2.2930275627825108e+18  2.2376737050192571e+18  2.1838191727143575e+18  2.1314185695317079e+18  2.0804280284491226e+18  2.0308051547358815e+18  1.9825089712705843e+18  1.9354998660941335e+18  1.8897395420978580e+18  1.8451909687516879e+18  1.8018183357818161e+18  1.7595870087117719e+18  1.7184634861848627e+18  1.6784153589899203e+18  1.6394112707160197e+18  1.6014208799653386e+18  1.5644148240566897e+18  1.5283646841554394e+18  1.4932429517685343e+18  1.4590229965462236e+18  1.4256790353347745e+18  1.3931861024270838e+18  1.3615200209604997e+18  1.3306573754135485e+18  1.3005754851554199e+18  1.2712523790042102e+18  1.2426667707519066e+18  1.2147980356159882e+18  1.1876261875793480e+18  1.1611318575819461e+18  1.1352962725292518e+18  1.1101012350840724e+18  1.0855291042098728e+18  1.0615627764350784e+18  1.0381856678092131e+18  1.0153816965230053e+18  9.9313526616579981e+17  9.7143124959479066e+17  9.5025497339168448e+17  9.2959220288346445e+17  9.0942912770493888e+17  8.8975234788169907e+17  8.7054886041303757e+17  8.5180604633525312e+17  8.3351165824659021e+17  8.1565380827585677e+17  7.9822095647753459e+17  7.8120189963689498e+17  7.6458576046935398e+17  7.4836197719892710e+17  7.3252029350129190e+17  7.1705074879757491e+17  7.0194366888553293e+17  6.8718965689535629e+17  6.7277958455785574e+17  6.5870458377327616e+17  6.4495603846947648e+17  6.3152557673866202e+17  6.1840506324229914e+17  6.0558659187425370e+17  5.9306247867260544e+17  5.8082525497096614e+17  5.6886766078049178e+17  5.5718263839414253e+17  5.4576332620506797e+17  5.3460305273131936e+17  5.2369533083940531e+17  5.1303385215948941e+17  5.0261248168531629e+17  4.9242525255222950e+17  4.8246636098689126e+17  4.7273016142256678e+17  4.6321116177407648e+17  4.5390401886674067e+17  4.4480353401386746e+17  4.3590464873753587e+17  4.2720244062762963e+17  4.1869211933426989e+17  4.1036902268897920e+17  4.0222861295008333e+17  3.9426647316803328e+17  3.8647830366648422e+17  3.7885991863513011e+17  3.7140724283043718e+17  3.6411630838057312e+17  3.5698325169095283e+17  3.5000431044696659e+17  3.4317582071057414e+17  3.3649421410757715e+17  3.2995601510249606e+17  3.2355783835809069e+17  3.1729638617667078e+17  3.1116844602045082e+17  3.0517088810829824e+17  2.9930066308632288e+17  2.9355479976984691e+17  2.8793040295437974e+17  2.8242465129332115e+17  2.7703479524017430e+17  2.7175815505315190e+17  2.6659211886012080e+17  2.6153414078190845e+17  2.5658173911206150e+17  2.5173249455121898e+17  2.4698404849432208e+17  2.4233410136894803e+17  2.3778041102311347e+17  2.3332079116095434e+17  2.2895310982473811e+17  2.2467528792172672e+17  2.2048529779444944e+17  2.1638116183300486e+17  2.1236095112805190e+17  2.0842278416319718e+17  2.0456482554553322e+17  2.0078528477311930e+17  1.9708241503824544e+17  1.9345451206535037e+17  1.8989991298251152e+17  1.8641699522545232e+17  1.8300417547305747e+17  1.7965990861341379e+17  1.7638268673942982e+17  1.7317103817311779e+17  1.7002352651765510e+17  1.6693874973636669e+17  1.6391533925780515e+17  1.6095195910612480e+17  1.5804730505597866e+17  1.5520010381119133e+17  1.5240911220648064e+17  1.4967311643153427e+17  1.4699093127675894e+17  1.4436139940005222e+17  1.4178339061396032e+17  1.3925580119261013e+17  1.3677755319782491e+17  1.3434759382384526e+17  1.3196489476010493e+17  1.2962845157152050e+17  1.2733728309577573e+17  1.2509043085709915e+17  1.2288695849604347e+17  1.2072595121479891e+17  1.1860651523757962e+17  1.1652777728564355e+17  1.1448888406651648e+17  1.1248900177700427e+17  1.1052731561959307e+17  1.0860302933184520e+17  1.0671536472841782e+17  1.0486356125533488e+17  1.0304687555616034e+17  1.0126458104973094e+17  9.9515967519112128e+16  9.7800340711459200e+16  9.6117021948469584e+16  9.4465347747123584e+16  9.2844669450421504e+16  9.1254352867831200e+16  8.9693777925172672e+16  8.8162338323670256e+16  8.6659441207914784e+16  8.5184506842484944e+16  8.3736968296982928e+16  8.2316271139249648e+16  8.0921873136528608e+16  7.9553243964358912e+16  7.8209864922979584e+16  7.6891228661036784e+16  7.5596838906392528e+16  7.4326210203836176e+16  7.3078867659509360e+16  7.1854346691858120e+16  7.0652192788933408e+16  6.9471961271865304e+16  6.8313217064340568e+16  6.7175534467921912e+16  6.6058496943046944e+16  6.4961696895552728e+16  6.3884735468577296e+16  6.2827222339690024e+16  6.1788775523110768e+16  6.0769021176879216e+16  5.9767593414843000e+16  5.8784134123332272e+16  5.7818292782396400e+16  5.6869726291480952e+16  5.5938098799424464e+16  5.5023081538662296e+16  5.4124352663522648e+16  5.3241597092508112e+16  5.2374506354456408e+16  5.1522778438476944e+16  5.0686117647564640e+16  4.9864234455792792e+16  4.9056845368991880e+16  4.8263672788822144e+16  4.7484444880150576e+16  4.6718895441647488e+16  4.5966763779516504e+16  4.5227794584277976e+16  4.4501737810525536e+16  4.3788348559578552e+16  4.3087386964956512e+16  4.2398618080600584e+16  4.1721811771773608e+16  4.1056742608567488e+16  4.0403189761952056e+16  3.9760936902300552e+16  3.9129772100326864e+16  3.8509487730374664e+16  3.7899880375996680e+16  3.7300750737767248e+16  3.6711903543270376e+16  3.6133147459208768e+16  3.5564295005579752e+16  3.5005162471865720e+16  3.4455569835189012e+16  3.3915340680380804e+16  3.3384302121916428e+16  3.2862284727670568e+16  3.2349122444445840e+16  3.1844652525231556e+16  3.1348715458148692e+16  3.0861154897039064e+16  3.0381817593658628e+16  2.9910553331434184e+16  2.9447214860745400e+16  2.8991657835693764e+16  2.8543740752322752e+16  2.8103324888252564e+16  2.7670274243694920e+16  2.7244455483814292e+16  2.6825737882402180e+16  2.6413993266832788e+16  2.6009095964268308e+16  2.5610922749083696e+16  2.5219352791481140e+16  2.4834267607265268e+16  2.4455551008751332e+16  2.4083089056778188e+16  2.3716770013800260e+16  2.3356484298031840e+16  2.3002124438618548e+16  2.2653585031811516e+16  2.2310762698119828e+16  2.1973556040418196e+16  2.1641865602986624e+16  2.1315593831460128e+16  2.0994645033666780e+16  2.0678925341332720e+16  2.0368342672633844e+16  2.0062806695573896e+16  1.9762228792169472e+16  1.9466522023423020e+16  1.9175601095064808e+16  1.8889382324046380e+16  1.8607783605767160e+16  1.8330724382017740e+16  1.8058125609622260e+16  1.7789909729764132e+16  1.7526000637979092e+16  1.7266323654799468e+16  1.7010805497035356e+16  1.6759374249677226e+16  1.6511959338405726e+16  1.6268491502694970e+16  1.6028902769494930e+16  1.5793126427480264e+16  1.5561097001851976e+16  1.5332750229679456e+16  1.5108023035770502e+16  1.4886853509057070e+16  1.4669180879485034e+16  1.4454945495396460e+16  1.4244088801393142e+16  1.4036553316670304e+16  1.3832282613809902e+16  1.3631221298023148e+16  1.3433314986831828e+16  1.3238510290178848e+16  1.3046754790957880e+16  1.2857997025952840e+16  1.2672186467178244e+16  1.2489273503610786e+16  1.2309209423304028e+16  1.2131946395877146e+16  1.1957437455369474e+16  1.1785636483452868e+16  1.1616498192993502e+16  1.1449978111955768e+16  1.1286032567640238e+16  1.1124618671248626e+16  1.0965694302768244e+16  1.0809218096168954e+16  1.0655149424905778e+16  1.0503448387720228e+16  1.0354075794734050e+16  1.0206993153828674e+16  1.0062162657304184e+16  9.9195471688117860e+15  9.7791102105535260e+15  9.6408159507437640e+15  9.5046291913262580e+15  9.3705153559417060e+15  9.2384404781399560e+15  9.1083711898316720e+15  8.9802747099744320e+15  8.8541188334878390e+15  8.7298719203929760e+15  8.6075028851711870e+15  8.4869811863374950e+15  8.3682768162240930e+15  8.2513602909692190e+15  8.1362026407072390e+15  8.0227753999553830e+15  7.9110505981930000e+15  7.8010007506293960e+15  7.6925988491558460e+15  7.5858183534782280e+15  7.4806331824261910e+15  7.3770177054351610e+15  7.2749467341975630e+15  7.1743955144796050e+15  7.0753397181001960e+15  6.9777554350684030e+15  6.8816191658763390e+15  6.7869078139439660e+15  6.6935986782127370e+15  6.6016694458849770e+15  6.5110981853058260e+15  6.4218633389848780e+15  6.3339437167544650e+15  6.2473184890618150e+15  6.1619671803922950e+15  6.0778696628209070e+15  5.9950061496894990e+15  5.9133571894069250e+15  5.8329036593697770e+15  5.7536267600010290e+15  5.6755080089041900e+15  5.5985292351306980e+15  5.5226725735579880e+15  5.4479204593761930e+15  5.3742556226810700e+15  5.3016610831710120e+15  5.2301201449460580e+15  5.1596163914067190e+15  5.0901336802506730e+15  5.0216561385652420e+15  4.9541681580137230e+15  4.8876543901137140e+15  4.8220997416054280e+15  4.7574893699083210e+15  4.6938086786641030e+15  4.6310433133644870e+15  4.5691791570618850e+15  4.5082023261613810e+15  4.4480991662923895e+15  4.3888562482583200e+15  4.3304603640627470e+15  4.2728985230104730e+15  4.2161579478820065e+15  4.1602260711800355e+15  4.1050905314463520e+15  4.0507391696479140e+15  3.9971600256305650e+15  3.9443413346391575e+15  3.8922715239026955e+15  3.8409392092831780e+15  3.7903331919869870e+15  3.7404424553374205e+15  3.6912561616072960e+15  3.6427636489103600e+15  3.5949544281503320e+15  3.5478181800265145e+15  3.5013447520947635e+15  3.4555241558827915e+15  3.4103465640587015e+15  3.3658023076517085e+15  3.3218818733240600e+15  3.2785759006930850e+15  3.2358751797024400e+15  3.1937706480415650e+15  3.1522533886124380e+15  3.1113146270426690e+15  3.0709457292440280e+15  3.0311381990155805e+15  2.9918836756904645e+15  2.9531739318255785e+15  2.9150008709332470e+15  2.8773565252540940e+15  2.8402330535703510e+15  2.8036227390587570e+15  2.7675179871823550e+15  2.7319113236203795e+15  2.6967953922355155e+15  2.6621629530778490e+15  2.6280068804247455e+15  2.5943201608560205e+15  2.5610958913636580e+15  2.5283272774955160e+15  2.4960076315322675e+15  2.4641303706970050e+15  2.4326890153968840e+15  2.4016771874961350e+15  2.3710886086199455e+15  2.3409170984885380e+15  2.3111565732809055e+15  2.2818010440276765e+15  2.2528446150324745e+15  2.2242814823213325e+15  2.1961059321195322e+15  2.1683123393554535e+15  2.1408951661908462e+15  2.1138489605770535e+15  2.0871683548367178e+15  2.0608480642704428e+15  2.0348828857880158e+15  2.0092676965636662e+15  1.9839974527149238e+15  1.9590671880046822e+15  1.9344720125659595e+15  1.9102071116489948e+15  1.8862677443902382e+15  1.8626492426028288e+15  1.8393470095881755e+15  1.8163565189682180e+15  1.7936733135380258e+15  1.7712930041383210e+15  1.7492112685475888e+15  1.7274238503933952e+15  1.7059265580825470e+15  1.6847152637497802e+15  1.6637859022246112e+15  1.6431344700160260e+15  1.6227570243146718e+15  1.6026496820122405e+15  1.5828086187377110e+15  1.5632300679101848e+15  1.5439103198079540e+15  1.5248457206535440e+15  1.5060326717144345e+15  1.4874676284191545e+15  1.4691470994885032e+15  1.4510676460815898e+15  1.4332258809564530e+15  1.4156184676449630e+15  1.3982421196417712e+15  1.3810935996070592e+15  1.3641697185828092e+15  1.3474673352223838e+15  1.3309833550331375e+15  1.3147147296318868e+15  1.2986584560129242e+15  1.2828115758284300e+15  1.2671711746810085e+15  1.2517343814281430e+15  1.2364983674983818e+15  1.2214603462190025e+15  1.2066175721549818e+15  1.1919673404590625e+15  1.1775069862326985e+15  1.1632338838977295e+15  1.1491454465785458e+15  1.1352391254945798e+15  1.1215124093629525e+15  1.1079628238110566e+15  1.0945879307989538e+15  1.0813853280513652e+15  1.0683526484991105e+15  1.0554875597298221e+15  1.0427877634477655e+15  1.0302509949426249e+15  1.0178750225670688e+15  1.0056576472229642e+15  9.9359670185607650e+14  9.8169005095909788e+14  9.6993559008288875e+14  9.5833124535575375e+14  9.4687497301063162e+14  9.3556475892005450e+14  9.2439861813873625e+14  9.1337459445367975e+14  9.0249075994163825e+14  8.9174521453383175e+14  8.8113608558776725e+14  8.7066152746607488e+14  8.6031972112219425e+14  8.5010887369282538e+14  8.4002721809702050e+14  8.3007301264178312e+14  8.2024454063409738e+14  8.1054010999924075e+14  8.0095805290528900e+14  7.9149672539371575e+14  7.8215450701595588e+14  7.7292980047586175e+14  7.6382103127792388e+14  7.5482664738117400e+14  7.4594511885867012e+14  7.3717493756245388e+14  7.2851461679391862e+14  7.1996269097945762e+14  7.1151771535133062e+14  7.0317826563365025e+14  6.9494293773339238e+14  6.8681034743636612e+14  6.7877913010803750e+14  6.7084794039913825e+14  6.6301545195597388e+14  6.5528035713534525e+14  6.4764136672402450e+14  6.4009720966268588e+14  6.3264663277423325e+14  6.2528840049643162e+14  6.1802129461880088e+14  6.1084411402366675e+14  6.0375567443131462e+14  5.9675480814918225e+14  5.8984036382501162e+14  5.8301120620390662e+14  5.7626621588921488e+14  5.6960428910718825e+14  5.6302433747534238e+14  5.5652528777446388e+14  5.5010608172420275e+14  5.4376567576218438e+14  5.3750304082658988e+14  5.3131716214214919e+14  5.2520703900947144e+14  5.1917168459768488e+14  5.1321012574031225e+14  5.0732140273433181e+14  5.0150456914237594e+14  4.9575869159800794e+14  4.9008284961403931e+14  4.8447613539381788e+14  4.7893765364545662e+14  4.7346652139894625e+14  4.6806186782609781e+14  4.6272283406328612e+14  4.5744857303692906e+14  4.5223824929166944e+14  4.4709103882121525e+14  4.4200612890178419e+14  4.3698271792812619e+14  4.3202001525206688e+14  4.2711724102353944e+14  4.2227362603406031e+14  4.1748841156261369e+14  4.1276084922389900e+14  4.0809020081890669e+14  4.0347573818778594e+14  3.9891674306496238e+14  3.9441250693647781e+14  3.8996233089950300e+14  3.8556552552400162e+14  3.8122141071650269e+14  3.7692931558594675e+14  3.7268857831158181e+14  3.6849854601286200e+14  3.6435857462132769e+14  3.6026802875443106e+14  3.5622628159127412e+14  3.5223271475023569e+14  3.4828671816844525e+14  3.4438768998308612e+14  3.4053503641448981e+14  3.3672817165099706e+14  3.3296651773555894e+14  3.2924950445404425e+14  3.2557656922523150e+14  3.2194715699245744e+14  3.1836072011689312e+14  3.1481671827242506e+14  3.1131461834211344e+14  3.0785389431620544e+14  3.0443402719167081e+14  3.0105450487325100e+14  2.9771482207598012e+14  2.9441448022916712e+14  2.9115298738181062e+14  2.8792985810942381e+14  2.8474461342225112e+14  2.8159678067484962e+14  2.7848589347701534e+14  2.7541149160603697e+14  2.7237312092024781e+14  2.6937033327386666e+14  2.6640268643309722e+14  2.6346974399347216e+14  2.6057107529842141e+14  2.5770625535904125e+14  2.5487486477505534e+14  2.5207648965693672e+14  2.4931072154918175e+14  2.4657715735471378e+14  2.4387539926040016e+14  2.4120505466366625e+14  2.3856573610018744e+14  2.3595706117264253e+14  2.3337865248051522e+14  2.3083013755092116e+14  2.2831114877045231e+14  2.2582132331801600e+14  2.2336030309865844e+14  2.2092773467835369e+14  2.1852326921974628e+14  2.1614656241883025e+14  2.1379727444255150e+14  2.1147506986731922e+14  2.0917961761841072e+14  2.0691059091026006e+14  2.0466766718761181e+14  2.0245052806752844e+14  2.0025885928224200e+14  1.9809235062283066e+14  1.9595069588371278e+14  1.9383359280794278e+14  1.9174074303329881e+14  1.8967185203914856e+14  1.8762662909408019e+14  1.8560478720429216e+14  1.8360604306272331e+14  1.8163011699891700e+14  1.7967673292960506e+14  1.7774561831000234e+14  1.7583650408580225e+14  1.7394912464585872e+14  1.7208321777554688e+14  1.7023852461079369e+14  1.6841478959276394e+14  1.6661176042319691e+14  1.6482918802037897e+14  1.6306682647574572e+14  1.6132443301110347e+14  1.5960176793645953e+14  1.5789859460845478e