<?xml version="1.0"?>
<VTKFile type="UnstructuredGrid"  version="0.1"  >
<UnstructuredGrid>
<Piece  NumberOfPoints="10001" NumberOfCells="10000">
<Points>
<DataArray  type="Float64"  NumberOfComponents="3"  format="ascii">0 0 0  0.0001 0 0  0.0002 0 0  0.0003 0 0  0.0004 0 0  0.0005 0 0  0.0005999999999999999 0 0  0.0007 0 0  0.0008 0 0  0.0009 0 0  0.001 0 0  0.0011 0 0  0.0012 0 0  0.0013 0 0  0.0014 0 0  0.0015 0 0  0.0016 0 0  0.0017 0 0  0.0018 0 0  0.0019 0 0  0.002 0 0  0.0021 0 0  0.0022 0 0  0.0023 0 0  0.0024 0 0  0.0025 0 0  0.0026 0 0  0.0027 0 0  0.0028 0 0  0.0029 0 0  0.003 0 0  0.0031 0 0  0.0032 0 0  0.0033 0 0  0.0034 0 0  0.0035 0 0  0.0036 0 0  0.0037 0 0  0.0038 0 0  0.0039 0 0  0.004 0 0  0.0041 0 0  0.0042 0 0  0.0043 0 0  0.0044 0 0  0.0045 0 0  0.0046 0 0  0.0047 0 0  0.0048 0 0  0.0049 0 0  0.005 0 0  0.0051 0 0  0.0052 0 0  0.0053 0 0  0.0054 0 0  0.0055 0 0  0.0056 0 0  0.0057 0 0  0.0058 0 0  0.0059 0 0  0.006 0 0  0.0061 0 0  0.0062 0 0  0.0063 0 0  0.0064 0 0  0.0065 0 0  0.0066 0 0  0.0067 0 0  0.0068 0 0  0.0069 0 0  0.007 0 0  0.0071 0 0  0.0072 0 0  0.0073 0 0  0.0074 0 0  0.0075 0 0  0.0076 0 0  0.0077 0 0  0.0078 0 0  0.007900000000000001 0 0  0.008 0 0  0.0081 0 0  0.008200000000000001 0 0  0.0083 0 0  0.008399999999999999 0 0  0.008500000000000001 0 0  0.0086 0 0  0.008699999999999999 0 0  0.008800000000000001 0 0  0.0089 0 0  0.008999999999999999 0 0  0.0091 0 0  0.0092 0 0  0.009299999999999999 0 0  0.0094 0 0  0.0095 0 0  0.009599999999999999 0 0  0.0097 0 0  0.0098 0 0  0.009900000000000001 0 0  0.01 0 0  0.0101 0 0  0.0102 0 0  0.0103 0 0  0.0104 0 0  0.0105 0 0  0.0106 0 0  0.0107 0 0  0.0108 0 0  0.0109 0 0  0.011 0 0  0.0111 0 0  0.0112 0 0  0.0113 0 0  0.0114 0 0  0.0115 0 0  0.0116 0 0  0.0117 0 0  0.0118 0 0  0.0119 0 0  0.012 0 0  0.0121 0 0  0.0122 0 0  0.0123 0 0  0.0124 0 0  0.0125 0 0  0.0126 0 0  0.0127 0 0  0.0128 0 0  0.0129 0 0  0.013 0 0  0.0131 0 0  0.0132 0 0  0.0133 0 0  0.0134 0 0  0.0135 0 0  0.0136 0 0  0.0137 0 0  0.0138 0 0  0.0139 0 0  0.014 0 0  0.0141 0 0  0.0142 0 0  0.0143 0 0  0.0144 0 0  0.0145 0 0  0.0146 0 0  0.0147 0 0  0.0148 0 0  0.0149 0 0  0.015 0 0  0.0151 0 0  0.0152 0 0  0.0153 0 0  0.0154 0 0  0.0155 0 0  0.0156 0 0  0.0157 0 0  0.0158 0 0  0.0159 0 0  0.016 0 0  0.0161 0 0  0.0162 0 0  0.0163 0 0  0.0164 0 0  0.0165 0 0  0.0166 0 0  0.0167 0 0  0.0168 0 0  0.0169 0 0  0.017 0 0  0.0171 0 0  0.0172 0 0  0.0173 0 0  0.0174 0 0  0.0175 0 0  0.0176 0 0  0.0177 0 0  0.0178 0 0  0.0179 0 0  0.018 0 0  0.0181 0 0  0.0182 0 0  0.0183 0 0  0.0184 0 0  0.0185 0 0  0.0186 0 0  0.0187 0 0  0.0188 0 0  0.0189 0 0  0.019 0 0  0.0191 0 0  0.0192 0 0  0.0193 0 0  0.0194 0 0  0.0195 0 0  0.0196 0 0  0.0197 0 0  0.0198 0 0  0.0199 0 0  0.02 0 0  0.0201 0 0  0.0202 0 0  0.0203 0 0  0.0204 0 0  0.0205 0 0  0.0206 0 0  0.0207 0 0  0.0208 0 0  0.0209 0 0  0.021 0 0  0.0211 0 0  0.0212 0 0  0.0213 0 0  0.0214 0 0  0.0215 0 0  0.0216 0 0  0.0217 0 0  0.0218 0 0  0.0219 0 0  0.022 0 0  0.0221 0 0  0.0222 0 0  0.0223 0 0  0.0224 0 0  0.0225 0 0  0.0226 0 0  0.0227 0 0  0.0228 0 0  0.0229 0 0  0.023 0 0  0.0231 0 0  0.0232 0 0  0.0233 0 0  0.0234 0 0  0.0235 0 0  0.0236 0 0  0.0237 0 0  0.0238 0 0  0.0239 0 0  0.024 0 0  0.0241 0 0  0.0242 0 0  0.0243 0 0  0.0244 0 0  0.0245 0 0  0.0246 0 0  0.0247 0 0  0.0248 0 0  0.0249 0 0  0.025 0 0  0.0251 0 0  0.0252 0 0  0.0253 0 0  0.0254 0 0  0.0255 0 0  0.0256 0 0  0.0257 0 0  0.0258 0 0  0.0259 0 0  0.026 0 0  0.0261 0 0  0.0262 0 0  0.0263 0 0  0.0264 0 0  0.0265 0 0  0.0266 0 0  0.0267 0 0  0.0268 0 0  0.0269 0 0  0.027 0 0  0.0271 0 0  0.0272 0 0  0.0273 0 0  0.0274 0 0  0.0275 0 0  0.0276 0 0  0.0277 0 0  0.0278 0 0  0.0279 0 0  0.028 0 0  0.0281 0 0  0.0282 0 0  0.0283 0 0  0.0284 0 0  0.0285 0 0  0.0286 0 0  0.0287 0 0  0.0288 0 0  0.0289 0 0  0.029 0 0  0.0291 0 0  0.0292 0 0  0.0293 0 0  0.0294 0 0  0.0295 0 0  0.0296 0 0  0.0297 0 0  0.0298 0 0  0.0299 0 0  0.03 0 0  0.0301 0 0  0.0302 0 0  0.0303 0 0  0.0304 0 0  0.0305 0 0  0.0306 0 0  0.0307 0 0  0.0308 0 0  0.0309 0 0  0.031 0 0  0.0311 0 0  0.0312 0 0  0.0313 0 0  0.0314 0 0  0.0315 0 0  0.0316 0 0  0.0317 0 0  0.0318 0 0  0.0319 0 0  0.032 0 0  0.0321 0 0  0.0322 0 0  0.0323 0 0  0.0324 0 0  0.0325 0 0  0.0326 0 0  0.0327 0 0  0.0328 0 0  0.0329 0 0  0.033 0 0  0.0331 0 0  0.0332 0 0  0.0333 0 0  0.0334 0 0  0.0335 0 0  0.0336 0 0  0.0337 0 0  0.0338 0 0  0.0339 0 0  0.034 0 0  0.0341 0 0  0.0342 0 0  0.0343 0 0  0.0344 0 0  0.0345 0 0  0.0346 0 0  0.0347 0 0  0.0348 0 0  0.0349 0 0  0.035 0 0  0.0351 0 0  0.0352 0 0  0.0353 0 0  0.0354 0 0  0.0355 0 0  0.0356 0 0  0.0357 0 0  0.0358 0 0  0.0359 0 0  0.036 0 0  0.0361 0 0  0.0362 0 0  0.0363 0 0  0.0364 0 0  0.0365 0 0  0.0366 0 0  0.0367 0 0  0.0368 0 0  0.0369 0 0  0.037 0 0  0.0371 0 0  0.0372 0 0  0.0373 0 0  0.0374 0 0  0.0375 0 0  0.0376 0 0  0.0377 0 0  0.0378 0 0  0.0379 0 0  0.038 0 0  0.0381 0 0  0.0382 0 0  0.0383 0 0  0.0384 0 0  0.0385 0 0  0.0386 0 0  0.0387 0 0  0.0388 0 0  0.0389 0 0  0.039 0 0  0.0391 0 0  0.0392 0 0  0.0393 0 0  0.0394 0 0  0.0395 0 0  0.0396 0 0  0.0397 0 0  0.0398 0 0  0.0399 0 0  0.04 0 0  0.0401 0 0  0.0402 0 0  0.0403 0 0  0.0404 0 0  0.0405 0 0  0.0406 0 0  0.0407 0 0  0.0408 0 0  0.0409 0 0  0.041 0 0  0.0411 0 0  0.0412 0 0  0.0413 0 0  0.0414 0 0  0.0415 0 0  0.0416 0 0  0.0417 0 0  0.0418 0 0  0.0419 0 0  0.042 0 0  0.0421 0 0  0.0422 0 0  0.0423 0 0  0.0424 0 0  0.0425 0 0  0.0426 0 0  0.0427 0 0  0.0428 0 0  0.0429 0 0  0.043 0 0  0.0431 0 0  0.0432 0 0  0.0433 0 0  0.0434 0 0  0.0435 0 0  0.0436 0 0  0.0437 0 0  0.0438 0 0  0.0439 0 0  0.044 0 0  0.0441 0 0  0.0442 0 0  0.0443 0 0  0.0444 0 0  0.0445 0 0  0.0446 0 0  0.0447 0 0  0.0448 0 0  0.0449 0 0  0.045 0 0  0.0451 0 0  0.0452 0 0  0.0453 0 0  0.0454 0 0  0.0455 0 0  0.0456 0 0  0.0457 0 0  0.0458 0 0  0.0459 0 0  0.046 0 0  0.0461 0 0  0.0462 0 0  0.0463 0 0  0.0464 0 0  0.0465 0 0  0.0466 0 0  0.0467 0 0  0.0468 0 0  0.0469 0 0  0.047 0 0  0.0471 0 0  0.0472 0 0  0.0473 0 0  0.0474 0 0  0.0475 0 0  0.0476 0 0  0.0477 0 0  0.0478 0 0  0.0479 0 0  0.048 0 0  0.0481 0 0  0.0482 0 0  0.0483 0 0  0.0484 0 0  0.0485 0 0  0.0486 0 0  0.0487 0 0  0.0488 0 0  0.0489 0 0  0.049 0 0  0.0491 0 0  0.0492 0 0  0.0493 0 0  0.0494 0 0  0.0495 0 0  0.0496 0 0  0.0497 0 0  0.0498 0 0  0.0499 0 0  0.05 0 0  0.0501 0 0  0.0502 0 0  0.0503 0 0  0.0504 0 0  0.0505 0 0  0.0506 0 0  0.0507 0 0  0.0508 0 0  0.0509 0 0  0.051 0 0  0.0511 0 0  0.0512 0 0  0.0513 0 0  0.0514 0 0  0.0515 0 0  0.0516 0 0  0.0517 0 0  0.0518 0 0  0.0519 0 0  0.052 0 0  0.0521 0 0  0.0522 0 0  0.0523 0 0  0.0524 0 0  0.0525 0 0  0.0526 0 0  0.0527 0 0  0.0528 0 0  0.0529 0 0  0.053 0 0  0.0531 0 0  0.0532 0 0  0.0533 0 0  0.0534 0 0  0.0535 0 0  0.0536 0 0  0.0537 0 0  0.0538 0 0  0.0539 0 0  0.054 0 0  0.0541 0 0  0.0542 0 0  0.0543 0 0  0.0544 0 0  0.0545 0 0  0.0546 0 0  0.0547 0 0  0.0548 0 0  0.0549 0 0  0.055 0 0  0.0551 0 0  0.0552 0 0  0.0553 0 0  0.0554 0 0  0.0555 0 0  0.0556 0 0  0.0557 0 0  0.0558 0 0  0.0559 0 0  0.056 0 0  0.0561 0 0  0.0562 0 0  0.0563 0 0  0.0564 0 0  0.0565 0 0  0.0566 0 0  0.0567 0 0  0.0568 0 0  0.0569 0 0  0.057 0 0  0.0571 0 0  0.0572 0 0  0.0573 0 0  0.0574 0 0  0.0575 0 0  0.0576 0 0  0.0577 0 0  0.0578 0 0  0.0579 0 0  0.058 0 0  0.0581 0 0  0.0582 0 0  0.0583 0 0  0.0584 0 0  0.0585 0 0  0.0586 0 0  0.0587 0 0  0.0588 0 0  0.0589 0 0  0.059 0 0  0.0591 0 0  0.0592 0 0  0.0593 0 0  0.0594 0 0  0.0595 0 0  0.0596 0 0  0.0597 0 0  0.0598 0 0  0.0599 0 0  0.06 0 0  0.0601 0 0  0.0602 0 0  0.0603 0 0  0.0604 0 0  0.0605 0 0  0.0606 0 0  0.0607 0 0  0.0608 0 0  0.0609 0 0  0.061 0 0  0.0611 0 0  0.0612 0 0  0.0613 0 0  0.0614 0 0  0.0615 0 0  0.0616 0 0  0.0617 0 0  0.0618 0 0  0.0619 0 0  0.062 0 0  0.0621 0 0  0.0622 0 0  0.0623 0 0  0.0624 0 0  0.0625 0 0  0.0626 0 0  0.06270000000000001 0 0  0.06279999999999999 0 0  0.0629 0 0  0.063 0 0  0.0631 0 0  0.06320000000000001 0 0  0.0633 0 0  0.0634 0 0  0.0635 0 0  0.0636 0 0  0.06370000000000001 0 0  0.0638 0 0  0.0639 0 0  0.064 0 0  0.0641 0 0  0.06419999999999999 0 0  0.0643 0 0  0.0644 0 0  0.0645 0 0  0.0646 0 0  0.06469999999999999 0 0  0.0648 0 0  0.0649 0 0  0.065 0 0  0.06510000000000001 0 0  0.06519999999999999 0 0  0.0653 0 0  0.0654 0 0  0.0655 0 0  0.06560000000000001 0 0  0.06569999999999999 0 0  0.0658 0 0  0.0659 0 0  0.066 0 0  0.06610000000000001 0 0  0.06619999999999999 0 0  0.0663 0 0  0.0664 0 0  0.0665 0 0  0.06660000000000001 0 0  0.0667 0 0  0.0668 0 0  0.0669 0 0  0.067 0 0  0.06710000000000001 0 0  0.0672 0 0  0.0673 0 0  0.0674 0 0  0.0675 0 0  0.06759999999999999 0 0  0.0677 0 0  0.0678 0 0  0.0679 0 0  0.068 0 0  0.06809999999999999 0 0  0.0682 0 0  0.0683 0 0  0.0684 0 0  0.06850000000000001 0 0  0.06859999999999999 0 0  0.0687 0 0  0.0688 0 0  0.0689 0 0  0.06900000000000001 0 0  0.06909999999999999 0 0  0.0692 0 0  0.0693 0 0  0.0694 0 0  0.06950000000000001 0 0  0.0696 0 0  0.0697 0 0  0.0698 0 0  0.0699 0 0  0.07000000000000001 0 0  0.0701 0 0  0.0702 0 0  0.0703 0 0  0.0704 0 0  0.07049999999999999 0 0  0.0706 0 0  0.0707 0 0  0.0708 0 0  0.0709 0 0  0.07099999999999999 0 0  0.0711 0 0  0.0712 0 0  0.0713 0 0  0.07140000000000001 0 0  0.07149999999999999 0 0  0.0716 0 0  0.0717 0 0  0.0718 0 0  0.07190000000000001 0 0  0.07199999999999999 0 0  0.0721 0 0  0.0722 0 0  0.0723 0 0  0.07240000000000001 0 0  0.0725 0 0  0.0726 0 0  0.0727 0 0  0.0728 0 0  0.07290000000000001 0 0  0.073 0 0  0.0731 0 0  0.0732 0 0  0.0733 0 0  0.07340000000000001 0 0  0.0735 0 0  0.0736 0 0  0.0737 0 0  0.0738 0 0  0.07389999999999999 0 0  0.074 0 0  0.0741 0 0  0.0742 0 0  0.0743 0 0  0.07439999999999999 0 0  0.0745 0 0  0.0746 0 0  0.0747 0 0  0.07480000000000001 0 0  0.07489999999999999 0 0  0.075 0 0  0.0751 0 0  0.0752 0 0  0.07530000000000001 0 0  0.07539999999999999 0 0  0.0755 0 0  0.0756 0 0  0.0757 0 0  0.07580000000000001 0 0  0.0759 0 0  0.076 0 0  0.0761 0 0  0.0762 0 0  0.07630000000000001 0 0  0.0764 0 0  0.0765 0 0  0.0766
[...]
<PointData  Scalars="f_18"> 
<DataArray  type="Float64"  Name="f_18"  format="ascii">0.0000000000000000e+00  1.8725517472968285e-05  3.7451033311456076e-05  5.6176545880982851e-05  7.4902053547068169e-05  9.3627554675231544e-05  1.1235304763099251e-04  1.3107853077987071e-04  1.4980400248738578e-04  1.6852946111905732e-04  1.8725490504040504e-04  2.0598033261694877e-04  2.2470574221420818e-04  2.4343113219770315e-04  2.6215650093295369e-04  2.8088184678547981e-04  2.9960716812080153e-04  3.1833246330443898e-04  3.3705773070191248e-04  3.5578296867874238e-04  3.7450817560044934e-04  3.9323334983255365e-04  4.1195848974057619e-04  4.3068359369003763e-04  4.4940866004645894e-04  4.6813368717536129e-04  4.8685867344226550e-04  5.0558361721269327e-04  5.2430851685216580e-04  5.4303337072620467e-04  5.6175817720033187e-04  5.8048293464006923e-04  5.9920764141093883e-04  6.1793229587846275e-04  6.3665689640816361e-04  6.5538144136556412e-04  6.7410592911618702e-04  6.9283035802555524e-04  7.1155472645919194e-04  7.3027903278262071e-04  7.4900327536136515e-04  7.6772745256094873e-04  7.8645156274689560e-04  8.0517560428473064e-04  8.2389957553997777e-04  8.4262347487816199e-04  8.6134730066480842e-04  8.8007105126544204e-04  8.9879472504558820e-04  9.1751832037077318e-04  9.3624183560652287e-04  9.5496526911836323e-04  9.7368861927182111e-04  9.9241188443242347e-04  1.0111350629656976e-03  1.0298581532371710e-03  1.0485811536123713e-03  1.0673040624568269e-03  1.0860268781360655e-03  1.1047495990156163e-03  1.1234722234610083e-03  1.1421947498377702e-03  1.1609171765114324e-03  1.1796395018475250e-03  1.1983617242115779e-03  1.2170838419691221e-03  1.2358058534856888e-03  1.2545277571268097e-03  1.2732495512580160e-03  1.2919712342448402e-03  1.3106928044528151e-03  1.3294142602474734e-03  1.3481355999943486e-03  1.3668568220589746e-03  1.3855779248068852e-03  1.4042989066036151e-03  1.4230197658146998e-03  1.4417405008056742e-03  1.4604611099420745e-03  1.4791815915894367e-03  1.4979019441132976e-03  1.5166221658791941e-03  1.5353422552526646e-03  1.5540622105992461e-03  1.5727820302844776e-03  1.5915017126738984e-03  1.6102212561330475e-03  1.6289406590274651e-03  1.6476599197226920e-03  1.6663790365842683e-03  1.6850980079777358e-03  1.7038168322686370e-03  1.7225355078225131e-03  1.7412540330049081e-03  1.7599724061813655e-03  1.7786906257174289e-03  1.7974086899786425e-03  1.8161265973305524e-03  1.8348443461387032e-03  1.8535619347686421e-03  1.8722793615859150e-03  1.8909966249560691e-03  1.9097137232446534e-03  1.9284306548172151e-03  1.9471474180393032e-03  1.9658640112764684e-03  1.9845804328942592e-03  2.0032966812582272e-03  2.0220127547339243e-03  2.0407286516869023e-03  2.0594443704827132e-03  2.0781599094869107e-03  2.0968752670650482e-03  2.1155904415826802e-03  2.1343054314053624e-03  2.1530202348986503e-03  2.1717348504281002e-03  2.1904492763592694e-03  2.2091635110577145e-03  2.2278775528889951e-03  2.2465914002186694e-03  2.2653050514122980e-03  2.2840185048354409e-03  2.3027317588536589e-03  2.3214448118325146e-03  2.3401576621375703e-03  2.3588703081343890e-03  2.3775827481885346e-03  2.3962949806655715e-03  2.4150070039310658e-03  2.4337188163505836e-03  2.4524304162896918e-03  2.4711418021139578e-03  2.4898529721889499e-03  2.5085639248802380e-03  2.5272746585533906e-03  2.5459851715739800e-03  2.5646954623075773e-03  2.5834055291197536e-03  2.6021153703760826e-03  2.6208249844421392e-03  2.6395343696834967e-03  2.6582435244657315e-03  2.6769524471544192e-03  2.6956611361151359e-03  2.7143695897134611e-03  2.7330778063149731e-03  2.7517857842852510e-03  2.7704935219898760e-03  2.7892010177944285e-03  2.8079082700644921e-03  2.8266152771656496e-03  2.8453220374634841e-03  2.8640285493235808e-03  2.8827348111115252e-03  2.9014408211929031e-03  2.9201465779333030e-03  2.9388520796983131e-03  2.9575573248535234e-03  2.9762623117645234e-03  2.9949670387969039e-03  3.0136715043162575e-03  3.0323757066881771e-03  3.0510796442782561e-03  3.0697833154520902e-03  3.0884867185752740e-03  3.1071898520134045e-03  3.1258927141320802e-03  3.1445953032969002e-03  3.1632976178734618e-03  3.1819996562273685e-03  3.2007014167242200e-03  3.2194028977296204e-03  3.2381040976091728e-03  3.2568050147284825e-03  3.2755056474531559e-03  3.2942059941487977e-03  3.3129060531810169e-03  3.3316058229154221e-03  3.3503053017176227e-03  3.3690044879532300e-03  3.3877033799878569e-03  3.4064019761871150e-03  3.4251002749166194e-03  3.4437982745419847e-03  3.4624959734288266e-03  3.4811933699427635e-03  3.4998904624494137e-03  3.5185872493143965e-03  3.5372837289033322e-03  3.5559798995818434e-03  3.5746757597155524e-03  3.5933713076700844e-03  3.6120665418110649e-03  3.6307614605041194e-03  3.6494560621148759e-03  3.6681503450089626e-03  3.6868443075520102e-03  3.7055379481096495e-03  3.7242312650475119e-03  3.7429242567312312e-03  3.7616169215264430e-03  3.7803092577987827e-03  3.7990012639138870e-03  3.8176929382373946e-03  3.8363842791349443e-03  3.8550752849721768e-03  3.8737659541147342e-03  3.8924562849282601e-03  3.9111462757783991e-03  3.9298359250307963e-03  3.9485252310510997e-03  3.9672141922049570e-03  3.9859028068580174e-03  4.0045910733759313e-03  4.0232789901243531e-03  4.0419665554689340e-03  4.0606537677753303e-03  4.0793406254091974e-03  4.0980271267361907e-03  4.1167132701219709e-03  4.1353990539321987e-03  4.1540844765325345e-03  4.1727695362886409e-03  4.1914542315661819e-03  4.2101385607308224e-03  4.2288225221482310e-03  4.2475061141840752e-03  4.2661893352040235e-03  4.2848721835737494e-03  4.3035546576589241e-03  4.3222367558252203e-03  4.3409184764383133e-03  4.3595998178638812e-03  4.3782807784675994e-03  4.3969613566151510e-03  4.4156415506722150e-03  4.4343213590044752e-03  4.4530007799776132e-03  4.4716798119573157e-03  4.4903584533092693e-03  4.5090367023991624e-03  4.5277145575926842e-03  4.5463920172555258e-03  4.5650690797533824e-03  4.5837457434519460e-03  4.6024220067169145e-03  4.6210978679139831e-03  4.6397733254088525e-03  4.6584483775672239e-03  4.6771230227547981e-03  4.6957972593372772e-03  4.7144710856803669e-03  4.7331445001497757e-03  4.7518175011112109e-03  4.7704900869303827e-03  4.7891622559730037e-03  4.8078340066047848e-03  4.8265053371914415e-03  4.8451762460986914e-03  4.8638467316922509e-03  4.8825167923378420e-03  4.9011864264011853e-03  4.9198556322480038e-03  4.9385244082440207e-03  4.9571927527549617e-03  4.9758606641465567e-03  4.9945281407845366e-03  5.0131951810346298e-03  5.0318617832625714e-03  5.0505279458340950e-03  5.0691936671149367e-03  5.0878589454708368e-03  5.1065237792675341e-03  5.1251881668707699e-03  5.1438521066462881e-03  5.1625155969598343e-03  5.1811786361771533e-03  5.1998412226639959e-03  5.2185033547861139e-03  5.2371650309092554e-03  5.2558262493991783e-03  5.2744870086216360e-03  5.2931473069423880e-03  5.3118071427271938e-03  5.3304665143418155e-03  5.3491254201520162e-03  5.3677838585235588e-03  5.3864418278222132e-03  5.4050993264137476e-03  5.4237563526639337e-03  5.4424129049385431e-03  5.4610689816033493e-03  5.4797245810241299e-03  5.4983797015666610e-03  5.5170343415967237e-03  5.5356884994801018e-03  5.5543421735825792e-03  5.5729953622699396e-03  5.5916480639079721e-03  5.6103002768624656e-03  5.6289519994992144e-03  5.6476032301840118e-03  5.6662539672826528e-03  5.6849042091609361e-03  5.7035539541846602e-03  5.7222032007196288e-03  5.7408519471316465e-03  5.7595001917865171e-03  5.7781479330500513e-03  5.7967951692880580e-03  5.8154418988663487e-03  5.8340881201507369e-03  5.8527338315070409e-03  5.8713790313010758e-03  5.8900237178986662e-03  5.9086678896656331e-03  5.9273115449677994e-03  5.9459546821709940e-03  5.9645972996410467e-03  5.9832393957437889e-03  6.0018809688450513e-03  6.0205220173106706e-03  6.0391625395064862e-03  6.0578025337983347e-03  6.0764419985520589e-03  6.0950809321335024e-03  6.1137193329085142e-03  6.1323571992429422e-03  6.1509945295026326e-03  6.1696313220534421e-03  6.1882675752612257e-03  6.2069032874918400e-03  6.2255384571111468e-03  6.2441730824850045e-03  6.2628071619792794e-03  6.2814406939598368e-03  6.3000736767925480e-03  6.3187061088432819e-03  6.3373379884779125e-03  6.3559693140623173e-03  6.3746000839623711e-03  6.3932302965439567e-03  6.4118599501729549e-03  6.4304890432152519e-03  6.4491175740367382e-03  6.4677455410032999e-03  6.4863729424808302e-03  6.5049997768352229e-03  6.5236260424323782e-03  6.5422517376381951e-03  6.5608768608185729e-03  6.5795014103394176e-03  6.5981253845666336e-03  6.6167487818661339e-03  6.6353716006038264e-03  6.6539938391456293e-03  6.6726154958574599e-03  6.6912365691052349e-03  6.7098570572548775e-03  6.7284769586723105e-03  6.7470962717234616e-03  6.7657149947742612e-03  6.7843331261906378e-03  6.8029506643385307e-03  6.8215676075838727e-03  6.8401839542926056e-03  6.8587997028306726e-03  6.8774148515640164e-03  6.8960293988585874e-03  6.9146433430803313e-03  6.9332566825952039e-03  6.9518694157691581e-03  6.9704815409681563e-03  6.9890930565581575e-03  7.0077039609051216e-03  7.0263142523750181e-03  7.0449239293338128e-03  7.0635329901474805e-03  7.0821414331819947e-03  7.1007492568033303e-03  7.1193564593774704e-03  7.1379630392703940e-03  7.1565689948480888e-03  7.1751743244765397e-03  7.1937790265217388e-03  7.2123830993496814e-03  7.2309865413263605e-03  7.2495893508177775e-03  7.2681915261899304e-03  7.2867930658088295e-03  7.3053939680404823e-03  7.3239942312508938e-03  7.3425938538060828e-03  7.3611928340720613e-03  7.3797911704148508e-03  7.3983888612004734e-03  7.4169859047949517e-03  7.4355822995643139e-03  7.4541780438745903e-03  7.4727731360918160e-03  7.4913675745820266e-03  7.5099613577112607e-03  7.5285544838455650e-03  7.5471469513509791e-03  7.5657387585935567e-03  7.5843299039393469e-03  7.6029203857544050e-03  7.6215102024047906e-03  7.6400993522565607e-03  7.6586878336757794e-03  7.6772756450285157e-03  7.6958627846808380e-03  7.7144492509988232e-03  7.7330350423485414e-03  7.7516201570960765e-03  7.7702045936075079e-03  7.7887883502489224e-03  7.8073714253864054e-03  7.8259538173860530e-03  7.8445355246139579e-03  7.8631165454362151e-03  7.8816968782189304e-03  7.9002765213282040e-03  7.9188554731301486e-03  7.9374337319908748e-03  7.9560112962764919e-03  7.9745881643531226e-03  7.9931643345868830e-03  8.0117398053438996e-03  8.0303145749902986e-03  8.0488886418922084e-03  8.0674620044157673e-03  8.0860346609271105e-03  8.1046066097923784e-03  8.1231778493777128e-03  8.1417483780492645e-03  8.1603181941731825e-03  8.1788872961156191e-03  8.1974556822427321e-03  8.2160233509206825e-03  8.2345903005156349e-03  8.2531565293937591e-03  8.2717220359212213e-03  8.2902868184641983e-03  8.3088508753888686e-03  8.3274142050614140e-03  8.3459768058480131e-03  8.3645386761148632e-03  8.3830998142281517e-03  8.4016602185540759e-03  8.4202198874588335e-03  8.4387788193086271e-03  8.4573370124696647e-03  8.4758944653081560e-03  8.4944511761903107e-03  8.5130071434823488e-03  8.5315623655504904e-03  8.5501168407609591e-03  8.5686705674799836e-03  8.5872235440737944e-03  8.6057757689086290e-03  8.6243272403507213e-03  8.6428779567663209e-03  8.6614279165216669e-03  8.6799771179830107e-03  8.6985255595166122e-03  8.7170732394887263e-03  8.7356201562656093e-03  8.7541663082135301e-03  8.7727116936987589e-03  8.7912563110875697e-03  8.8098001587462345e-03  8.8283432350410376e-03  8.8468855383382564e-03  8.8654270670041821e-03  8.8839678194051093e-03  8.9025077939073292e-03  8.9210469888771435e-03  8.9395854026808538e-03  8.9581230336847704e-03  8.9766598802552035e-03  8.9951959407584669e-03  9.0137312135608882e-03  9.0322656970287796e-03  9.0507993895284737e-03  9.0693322894263000e-03  9.0878643950885948e-03  9.1063957048816997e-03  9.1249262171719508e-03  9.1434559303257036e-03  9.1619848427093049e-03  9.1805129526891099e-03  9.1990402586314812e-03  9.2175667589027826e-03  9.2360924518693800e-03  9.2546173358976462e-03  9.2731414093539591e-03  9.2916646706046949e-03  9.3101871180162402e-03  9.3287087499549885e-03  9.3472295647873266e-03  9.3657495608796548e-03  9.3842687365983703e-03  9.4027870903098856e-03  9.4213046203806081e-03  9.4398213251769489e-03  9.4583372030653326e-03  9.4768522524121771e-03  9.4953664715839124e-03  9.5138798589469633e-03  9.5323924128677771e-03  9.5509041317127855e-03  9.5694150138484341e-03  9.5879250576411737e-03  9.6064342614574603e-03  9.6249426236637466e-03  9.6434501426265039e-03  9.6619568167121868e-03  9.6804626442872736e-03  9.6989676237182413e-03  9.7174717533715683e-03  9.7359750316137385e-03  9.7544774568112426e-03  9.7729790273305729e-03  9.7914797415382306e-03  9.8099795978007151e-03  9.8284785944845361e-03  9.8469767299562035e-03  9.8654740025822408e-03  9.8839704107291631e-03  9.9024659527634992e-03  9.9209606270517781e-03  9.9394544319605389e-03  9.9579473658563209e-03  9.9764394271056669e-03  9.9949306140751284e-03  1.0013420925131258e-02  1.0031910358640619e-02  1.0050398912969773e-02  1.0068886586485288e-02  1.0087373377553740e-02  1.0105859284541704e-02  1.0124344305815765e-02  1.0142828439742513e-02  1.0161311684688540e-02  1.0179794039020444e-02  1.0198275501104826e-02  1.0216756069308296e-02  1.0235235741997462e-02  1.0253714517538948e-02  1.0272192394299374e-02  1.0290669370645366e-02  1.0309145444943560e-02  1.0327620615560588e-02  1.0346094880863096e-02  1.0364568239217737e-02  1.0383040688991159e-02  1.0401512228550023e-02  1.0419982856260987e-02  1.0438452570490723e-02  1.0456921369605902e-02  1.0475389251973203e-02  1.0493856215959312e-02  1.0512322259930916e-02  1.0530787382254710e-02  1.0549251581297391e-02  1.0567714855425661e-02  1.0586177203006237e-02  1.0604638622405826e-02  1.0623099111991153e-02  1.0641558670128939e-02  1.0660017295185920e-02  1.0678474985528829e-02  1.0696931739524410e-02  1.0715387555539409e-02  1.0733842431940577e-02  1.0752296367094674e-02  1.0770749359368460e-02  1.0789201407128707e-02  1.0807652508742193e-02  1.0826102662575691e-02  1.0844551866995988e-02  1.0863000120369871e-02  1.0881447421064143e-02  1.0899893767445603e-02  1.0918339157881055e-02  1.0936783590737314e-02  1.0955227064381193e-02  1.0973669577179523e-02  1.0992111127499126e-02  1.1010551713706846e-02  1.1028991334169524e-02  1.1047429987254000e-02  1.1065867671327129e-02  1.1084304384755769e-02  1.1102740125906778e-02  1.1121174893147037e-02  1.1139608684843413e-02  1.1158041499362793e-02  1.1176473335072058e-02  1.1194904190338101e-02  1.1213334063527824e-02  1.1231762953008130e-02  1.1250190857145931e-02  1.1268617774308138e-02  1.1287043702861680e-02  1.1305468641173480e-02  1.1323892587610471e-02  1.1342315540539598e-02  1.1360737498327804e-02  1.1379158459342040e-02  1.1397578421949264e-02  1.1415997384516442e-02  1.1434415345410546e-02  1.1452832302998544e-02  1.1471248255647425e-02  1.1489663201724174e-02  1.1508077139595790e-02  1.1526490067629271e-02  1.1544901984191620e-02  1.1563312887649857e-02  1.1581722776370996e-02  1.1600131648722067e-02  1.1618539503070098e-02  1.1636946337782133e-02  1.1655352151225210e-02  1.1673756941766384e-02  1.1692160707772709e-02  1.1710563447611250e-02  1.1728965159649080e-02  1.1747365842253270e-02  1.1765765493790905e-02  1.1784164112629069e-02  1.1802561697134865e-02  1.1820958245675391e-02  1.1839353756617757e-02  1.1857748228329076e-02  1.1876141659176468e-02  1.1894534047527066e-02  1.1912925391748002e-02  1.1931315690206416e-02  1.1949704941269453e-02  1.1968093143304274e-02  1.1986480294678034e-02  1.2004866393757904e-02  1.2023251438911052e-02  1.2041635428504659e-02  1.2060018360905922e-02  1.2078400234482029e-02  1.2096781047600183e-02  1.2115160798627594e-02  1.2133539485931469e-02  1.2151917107879039e-02  1.2170293662837527e-02  1.2188669149174170e-02  1.2207043565256211e-02  1.2225416909450896e-02  1.2243789180125485e-02  1.2262160375647244e-02  1.2280530494383438e-02  1.2298899534701344e-02  1.2317267494968243e-02  1.2335634373551436e-02  1.2354000168818217e-02  1.2372364879135886e-02  1.2390728502871757e-02  1.2409091038393149e-02  1.2427452484067392e-02  1.2445812838261815e-02  1.2464172099343761e-02  1.2482530265680580e-02  1.2500887335639622e-02  1.2519243307588256e-02  1.2537598179893852e-02  1.2555951950923783e-02  1.2574304619045434e-02  1.2592656182626200e-02  1.2611006640033475e-02  1.2629355989634666e-02  1.2647704229797191e-02  1.2666051358888467e-02  1.2684397375275927e-02  1.2702742277327006e-02  1.2721086063409149e-02  1.2739428731889808e-02  1.2757770281136435e-02  1.2776110709516501e-02  1.2794450015397481e-02  1.2812788197146853e-02  1.2831125253132106e-02  1.2849461181720740e-02  1.2867795981280260e-02  1.2886129650178175e-02  1.2904462186782003e-02  1.2922793589459273e-02  1.2941123856577520e-02  1.2959452986504286e-02  1.2977780977607125e-02  1.2996107828253592e-02  1.3014433536811259e-02  1.3032758101647692e-02  1.3051081521130480e-02  1.3069403793627208e-02  1.3087724917505476e-02  1.3106044891132889e-02  1.3124363712877059e-02  1.3142681381105614e-02  1.3160997894186182e-02  1.3179313250486399e-02  1.3197627448373913e-02  1.3215940486216377e-02  1.3234252362381455e-02  1.3252563075236813e-02  1.3270872623150133e-02  1.3289181004489097e-02  1.3307488217621406e-02  1.3325794260914764e-02  1.3344099132736879e-02  1.3362402831455469e-02  1.3380705355438260e-02  1.3399006703052994e-02  1.3417306872667414e-02  1.3435605862649275e-02  1.3453903671366334e-02  1.3472200297186362e-02  1.3490495738477144e-02  1.3508789993606461e-02  1.3527083060942106e-02  1.3545374938851888e-02  1.3563665625703610e-02  1.3581955119865102e-02  1.3600243419704193e-02  1.3618530523588716e-02  1.3636816429886522e-02  1.3655101136965464e-02  1.3673384643193414e-02  1.3691666946938236e-02  1.3709948046567813e-02  1.3728227940450036e-02  1.3746506626952808e-02  1.3764784104444034e-02  1.3783060371291626e-02  1.3801335425863516e-02  1.3819609266527635e-02  1.3837881891651929e-02  1.3856153299604350e-02  1.3874423488752856e-02  1.3892692457465420e-02  1.3910960204110015e-02  1.3929226727054638e-02  1.3947492024667283e-02  1.3965756095315958e-02  1.3984018937368678e-02  1.4002280549193462e-02  1.4020540929158351e-02  1.4038800075631387e-02  1.4057057986980617e-02  1.4075314661574106e-02  1.4093570097779921e-02  1.4111824293966150e-02  1.4130077248500881e-02  1.4148328959752208e-02  1.4166579426088240e-02  1.4184828645877093e-02  1.4203076617486904e-02  1.4221323339285800e-02  1.4239568809641929e-02  1.4257813026923444e-02  1.4276055989498515e-02  1.4294297695735318e-02  1.4312538144002027e-02  1.4330777332666840e-02  1.4349015260097957e-02  1.4367251924663597e-02  1.4385487324731980e-02  1.4403721458671340e-02  1.4421954324849915e-02  1.4440185921635958e-02  1.4458416247397738e-02  1.4476645300503518e-02  1.4494873079321579e-02  1.4513099582220216e-02  1.4531324807567724e-02  1.4549548753732424e-02  1.4567771419082628e-02  1.4585992801986672e-02  1.4604212900812893e-02  1.4622431713929641e-02  1.4640649239705277e-02  1.4658865476508175e-02  1.4677080422706712e-02  1.4695294076669281e-02  1.4713506436764284e-02  1.4731717501360136e-02  1.4749927268825258e-02  1.4768135737528078e-02  1.4786342905837043e-02  1.4804548772120606e-02  1.4822753334747229e-02  1.4840956592085380e-02  1.4859158542503548e-02  1.4877359184370225e-02  1.4895558516053922e-02  1.4913756535923148e-02  1.4931953242346429e-02  1.4950148633692302e-02  1.4968342708329309e-02  1.4986535464626015e-02  1.5004726900950982e-02  1.5022917015672788e-02  1.5041105807160025e-02  1.5059293273781289e-02  1.5077479413905198e-02  1.5095664225900375e-02  1.5113847708135441e-02  1.5132029858979046e-02  1.5150210676799837e-02  1.5168390159966494e-02  1.5186568306847682e-02  1.5204745115812089e-02  1.5222920585228415e-02  1.5241094713465362e-02  1.5259267498891657e-02  1.5277438939876029e-02  1.5295609034787213e-02  1.5313777781993970e-02  1.5331945179865055e-02  1.5350111226769254e-02  1.5368275921075347e