<?xml version="1.0"?>
<VTKFile type="UnstructuredGrid"  version="0.1"  >
<UnstructuredGrid>
<Piece  NumberOfPoints="20001" NumberOfCells="20000">
<Points>
<DataArray  type="Float64"  NumberOfComponents="3"  format="ascii">0 0 0  5e-05 0 0  0.0001 0 0  0.00015 0 0  0.0002 0 0  0.00025 0 0  0.0003 0 0  0.00035 0 0  0.0004 0 0  0.00045 0 0  0.0005 0 0  0.00055 0 0  0.0005999999999999999 0 0  0.00065 0 0  0.0007 0 0  0.00075 0 0  0.0008 0 0  0.00085 0 0  0.0009 0 0  0.00095 0 0  0.001 0 0  0.00105 0 0  0.0011 0 0  0.00115 0 0  0.0012 0 0  0.00125 0 0  0.0013 0 0  0.00135 0 0  0.0014 0 0  0.00145 0 0  0.0015 0 0  0.00155 0 0  0.0016 0 0  0.00165 0 0  0.0017 0 0  0.00175 0 0  0.0018 0 0  0.00185 0 0  0.0019 0 0  0.00195 0 0  0.002 0 0  0.00205 0 0  0.0021 0 0  0.00215 0 0  0.0022 0 0  0.00225 0 0  0.0023 0 0  0.00235 0 0  0.0024 0 0  0.00245 0 0  0.0025 0 0  0.00255 0 0  0.0026 0 0  0.00265 0 0  0.0027 0 0  0.00275 0 0  0.0028 0 0  0.00285 0 0  0.0029 0 0  0.00295 0 0  0.003 0 0  0.00305 0 0  0.0031 0 0  0.00315 0 0  0.0032 0 0  0.00325 0 0  0.0033 0 0  0.00335 0 0  0.0034 0 0  0.00345 0 0  0.0035 0 0  0.00355 0 0  0.0036 0 0  0.00365 0 0  0.0037 0 0  0.00375 0 0  0.0038 0 0  0.00385 0 0  0.0039 0 0  0.00395 0 0  0.004 0 0  0.00405 0 0  0.0041 0 0  0.00415 0 0  0.0042 0 0  0.00425 0 0  0.0043 0 0  0.00435 0 0  0.0044 0 0  0.00445 0 0  0.0045 0 0  0.00455 0 0  0.0046 0 0  0.00465 0 0  0.0047 0 0  0.00475 0 0  0.0048 0 0  0.00485 0 0  0.0049 0 0  0.00495 0 0  0.005 0 0  0.00505 0 0  0.0051 0 0  0.00515 0 0  0.0052 0 0  0.00525 0 0  0.0053 0 0  0.00535 0 0  0.0054 0 0  0.00545 0 0  0.0055 0 0  0.00555 0 0  0.0056 0 0  0.00565 0 0  0.0057 0 0  0.00575 0 0  0.0058 0 0  0.00585 0 0  0.0059 0 0  0.00595 0 0  0.006 0 0  0.00605 0 0  0.0061 0 0  0.00615 0 0  0.0062 0 0  0.00625 0 0  0.0063 0 0  0.00635 0 0  0.0064 0 0  0.00645 0 0  0.0065 0 0  0.00655 0 0  0.0066 0 0  0.00665 0 0  0.0067 0 0  0.00675 0 0  0.0068 0 0  0.00685 0 0  0.0069 0 0  0.00695 0 0  0.007 0 0  0.00705 0 0  0.0071 0 0  0.00715 0 0  0.0072 0 0  0.00725 0 0  0.0073 0 0  0.00735 0 0  0.0074 0 0  0.00745 0 0  0.0075 0 0  0.00755 0 0  0.0076 0 0  0.00765 0 0  0.0077 0 0  0.00775 0 0  0.0078 0 0  0.007849999999999999 0 0  0.007900000000000001 0 0  0.00795 0 0  0.008 0 0  0.00805 0 0  0.0081 0 0  0.008149999999999999 0 0  0.008200000000000001 0 0  0.00825 0 0  0.0083 0 0  0.00835 0 0  0.008399999999999999 0 0  0.008449999999999999 0 0  0.008500000000000001 0 0  0.00855 0 0  0.0086 0 0  0.00865 0 0  0.008699999999999999 0 0  0.008750000000000001 0 0  0.008800000000000001 0 0  0.00885 0 0  0.0089 0 0  0.00895 0 0  0.008999999999999999 0 0  0.009050000000000001 0 0  0.0091 0 0  0.00915 0 0  0.0092 0 0  0.00925 0 0  0.009299999999999999 0 0  0.009350000000000001 0 0  0.0094 0 0  0.00945 0 0  0.0095 0 0  0.009549999999999999 0 0  0.009599999999999999 0 0  0.009650000000000001 0 0  0.0097 0 0  0.00975 0 0  0.0098 0 0  0.009849999999999999 0 0  0.009900000000000001 0 0  0.009950000000000001 0 0  0.01 0 0  0.01005 0 0  0.0101 0 0  0.01015 0 0  0.0102 0 0  0.01025 0 0  0.0103 0 0  0.01035 0 0  0.0104 0 0  0.01045 0 0  0.0105 0 0  0.01055 0 0  0.0106 0 0  0.01065 0 0  0.0107 0 0  0.01075 0 0  0.0108 0 0  0.01085 0 0  0.0109 0 0  0.01095 0 0  0.011 0 0  0.01105 0 0  0.0111 0 0  0.01115 0 0  0.0112 0 0  0.01125 0 0  0.0113 0 0  0.01135 0 0  0.0114 0 0  0.01145 0 0  0.0115 0 0  0.01155 0 0  0.0116 0 0  0.01165 0 0  0.0117 0 0  0.01175 0 0  0.0118 0 0  0.01185 0 0  0.0119 0 0  0.01195 0 0  0.012 0 0  0.01205 0 0  0.0121 0 0  0.01215 0 0  0.0122 0 0  0.01225 0 0  0.0123 0 0  0.01235 0 0  0.0124 0 0  0.01245 0 0  0.0125 0 0  0.01255 0 0  0.0126 0 0  0.01265 0 0  0.0127 0 0  0.01275 0 0  0.0128 0 0  0.01285 0 0  0.0129 0 0  0.01295 0 0  0.013 0 0  0.01305 0 0  0.0131 0 0  0.01315 0 0  0.0132 0 0  0.01325 0 0  0.0133 0 0  0.01335 0 0  0.0134 0 0  0.01345 0 0  0.0135 0 0  0.01355 0 0  0.0136 0 0  0.01365 0 0  0.0137 0 0  0.01375 0 0  0.0138 0 0  0.01385 0 0  0.0139 0 0  0.01395 0 0  0.014 0 0  0.01405 0 0  0.0141 0 0  0.01415 0 0  0.0142 0 0  0.01425 0 0  0.0143 0 0  0.01435 0 0  0.0144 0 0  0.01445 0 0  0.0145 0 0  0.01455 0 0  0.0146 0 0  0.01465 0 0  0.0147 0 0  0.01475 0 0  0.0148 0 0  0.01485 0 0  0.0149 0 0  0.01495 0 0  0.015 0 0  0.01505 0 0  0.0151 0 0  0.01515 0 0  0.0152 0 0  0.01525 0 0  0.0153 0 0  0.01535 0 0  0.0154 0 0  0.01545 0 0  0.0155 0 0  0.01555 0 0  0.0156 0 0  0.01565 0 0  0.0157 0 0  0.01575 0 0  0.0158 0 0  0.01585 0 0  0.0159 0 0  0.01595 0 0  0.016 0 0  0.01605 0 0  0.0161 0 0  0.01615 0 0  0.0162 0 0  0.01625 0 0  0.0163 0 0  0.01635 0 0  0.0164 0 0  0.01645 0 0  0.0165 0 0  0.01655 0 0  0.0166 0 0  0.01665 0 0  0.0167 0 0  0.01675 0 0  0.0168 0 0  0.01685 0 0  0.0169 0 0  0.01695 0 0  0.017 0 0  0.01705 0 0  0.0171 0 0  0.01715 0 0  0.0172 0 0  0.01725 0 0  0.0173 0 0  0.01735 0 0  0.0174 0 0  0.01745 0 0  0.0175 0 0  0.01755 0 0  0.0176 0 0  0.01765 0 0  0.0177 0 0  0.01775 0 0  0.0178 0 0  0.01785 0 0  0.0179 0 0  0.01795 0 0  0.018 0 0  0.01805 0 0  0.0181 0 0  0.01815 0 0  0.0182 0 0  0.01825 0 0  0.0183 0 0  0.01835 0 0  0.0184 0 0  0.01845 0 0  0.0185 0 0  0.01855 0 0  0.0186 0 0  0.01865 0 0  0.0187 0 0  0.01875 0 0  0.0188 0 0  0.01885 0 0  0.0189 0 0  0.01895 0 0  0.019 0 0  0.01905 0 0  0.0191 0 0  0.01915 0 0  0.0192 0 0  0.01925 0 0  0.0193 0 0  0.01935 0 0  0.0194 0 0  0.01945 0 0  0.0195 0 0  0.01955 0 0  0.0196 0 0  0.01965 0 0  0.0197 0 0  0.01975 0 0  0.0198 0 0  0.01985 0 0  0.0199 0 0  0.01995 0 0  0.02 0 0  0.02005 0 0  0.0201 0 0  0.02015 0 0  0.0202 0 0  0.02025 0 0  0.0203 0 0  0.02035 0 0  0.0204 0 0  0.02045 0 0  0.0205 0 0  0.02055 0 0  0.0206 0 0  0.02065 0 0  0.0207 0 0  0.02075 0 0  0.0208 0 0  0.02085 0 0  0.0209 0 0  0.02095 0 0  0.021 0 0  0.02105 0 0  0.0211 0 0  0.02115 0 0  0.0212 0 0  0.02125 0 0  0.0213 0 0  0.02135 0 0  0.0214 0 0  0.02145 0 0  0.0215 0 0  0.02155 0 0  0.0216 0 0  0.02165 0 0  0.0217 0 0  0.02175 0 0  0.0218 0 0  0.02185 0 0  0.0219 0 0  0.02195 0 0  0.022 0 0  0.02205 0 0  0.0221 0 0  0.02215 0 0  0.0222 0 0  0.02225 0 0  0.0223 0 0  0.02235 0 0  0.0224 0 0  0.02245 0 0  0.0225 0 0  0.02255 0 0  0.0226 0 0  0.02265 0 0  0.0227 0 0  0.02275 0 0  0.0228 0 0  0.02285 0 0  0.0229 0 0  0.02295 0 0  0.023 0 0  0.02305 0 0  0.0231 0 0  0.02315 0 0  0.0232 0 0  0.02325 0 0  0.0233 0 0  0.02335 0 0  0.0234 0 0  0.02345 0 0  0.0235 0 0  0.02355 0 0  0.0236 0 0  0.02365 0 0  0.0237 0 0  0.02375 0 0  0.0238 0 0  0.02385 0 0  0.0239 0 0  0.02395 0 0  0.024 0 0  0.02405 0 0  0.0241 0 0  0.02415 0 0  0.0242 0 0  0.02425 0 0  0.0243 0 0  0.02435 0 0  0.0244 0 0  0.02445 0 0  0.0245 0 0  0.02455 0 0  0.0246 0 0  0.02465 0 0  0.0247 0 0  0.02475 0 0  0.0248 0 0  0.02485 0 0  0.0249 0 0  0.02495 0 0  0.025 0 0  0.02505 0 0  0.0251 0 0  0.02515 0 0  0.0252 0 0  0.02525 0 0  0.0253 0 0  0.02535 0 0  0.0254 0 0  0.02545 0 0  0.0255 0 0  0.02555 0 0  0.0256 0 0  0.02565 0 0  0.0257 0 0  0.02575 0 0  0.0258 0 0  0.02585 0 0  0.0259 0 0  0.02595 0 0  0.026 0 0  0.02605 0 0  0.0261 0 0  0.02615 0 0  0.0262 0 0  0.02625 0 0  0.0263 0 0  0.02635 0 0  0.0264 0 0  0.02645 0 0  0.0265 0 0  0.02655 0 0  0.0266 0 0  0.02665 0 0  0.0267 0 0  0.02675 0 0  0.0268 0 0  0.02685 0 0  0.0269 0 0  0.02695 0 0  0.027 0 0  0.02705 0 0  0.0271 0 0  0.02715 0 0  0.0272 0 0  0.02725 0 0  0.0273 0 0  0.02735 0 0  0.0274 0 0  0.02745 0 0  0.0275 0 0  0.02755 0 0  0.0276 0 0  0.02765 0 0  0.0277 0 0  0.02775 0 0  0.0278 0 0  0.02785 0 0  0.0279 0 0  0.02795 0 0  0.028 0 0  0.02805 0 0  0.0281 0 0  0.02815 0 0  0.0282 0 0  0.02825 0 0  0.0283 0 0  0.02835 0 0  0.0284 0 0  0.02845 0 0  0.0285 0 0  0.02855 0 0  0.0286 0 0  0.02865 0 0  0.0287 0 0  0.02875 0 0  0.0288 0 0  0.02885 0 0  0.0289 0 0  0.02895 0 0  0.029 0 0  0.02905 0 0  0.0291 0 0  0.02915 0 0  0.0292 0 0  0.02925 0 0  0.0293 0 0  0.02935 0 0  0.0294 0 0  0.02945 0 0  0.0295 0 0  0.02955 0 0  0.0296 0 0  0.02965 0 0  0.0297 0 0  0.02975 0 0  0.0298 0 0  0.02985 0 0  0.0299 0 0  0.02995 0 0  0.03 0 0  0.03005 0 0  0.0301 0 0  0.03015 0 0  0.0302 0 0  0.03025 0 0  0.0303 0 0  0.03035 0 0  0.0304 0 0  0.03045 0 0  0.0305 0 0  0.03055 0 0  0.0306 0 0  0.03065 0 0  0.0307 0 0  0.03075 0 0  0.0308 0 0  0.03085 0 0  0.0309 0 0  0.03095 0 0  0.031 0 0  0.03105 0 0  0.0311 0 0  0.03115 0 0  0.0312 0 0  0.03125 0 0  0.0313 0 0  0.03135 0 0  0.0314 0 0  0.03145 0 0  0.0315 0 0  0.03155 0 0  0.0316 0 0  0.03165 0 0  0.0317 0 0  0.03175 0 0  0.0318 0 0  0.03185 0 0  0.0319 0 0  0.03195 0 0  0.032 0 0  0.03205 0 0  0.0321 0 0  0.03215 0 0  0.0322 0 0  0.03225 0 0  0.0323 0 0  0.03235 0 0  0.0324 0 0  0.03245 0 0  0.0325 0 0  0.03255 0 0  0.0326 0 0  0.03265 0 0  0.0327 0 0  0.03275 0 0  0.0328 0 0  0.03285 0 0  0.0329 0 0  0.03295 0 0  0.033 0 0  0.03305 0 0  0.0331 0 0  0.03315 0 0  0.0332 0 0  0.03325 0 0  0.0333 0 0  0.03335 0 0  0.0334 0 0  0.03345 0 0  0.0335 0 0  0.03355 0 0  0.0336 0 0  0.03365 0 0  0.0337 0 0  0.03375 0 0  0.0338 0 0  0.03385 0 0  0.0339 0 0  0.03395 0 0  0.034 0 0  0.03405 0 0  0.0341 0 0  0.03415 0 0  0.0342 0 0  0.03425 0 0  0.0343 0 0  0.03435 0 0  0.0344 0 0  0.03445 0 0  0.0345 0 0  0.03455 0 0  0.0346 0 0  0.03465 0 0  0.0347 0 0  0.03475 0 0  0.0348 0 0  0.03485 0 0  0.0349 0 0  0.03495 0 0  0.035 0 0  0.03505 0 0  0.0351 0 0  0.03515 0 0  0.0352 0 0  0.03525 0 0  0.0353 0 0  0.03535 0 0  0.0354 0 0  0.03545 0 0  0.0355 0 0  0.03555 0 0  0.0356 0 0  0.03565 0 0  0.0357 0 0  0.03575 0 0  0.0358 0 0  0.03585 0 0  0.0359 0 0  0.03595 0 0  0.036 0 0  0.03605 0 0  0.0361 0 0  0.03615 0 0  0.0362 0 0  0.03625 0 0  0.0363 0 0  0.03635 0 0  0.0364 0 0  0.03645 0 0  0.0365 0 0  0.03655 0 0  0.0366 0 0  0.03665 0 0  0.0367 0 0  0.03675 0 0  0.0368 0 0  0.03685 0 0  0.0369 0 0  0.03695 0 0  0.037 0 0  0.03705 0 0  0.0371 0 0  0.03715 0 0  0.0372 0 0  0.03725 0 0  0.0373 0 0  0.03735 0 0  0.0374 0 0  0.03745 0 0  0.0375 0 0  0.03755 0 0  0.0376 0 0  0.03765 0 0  0.0377 0 0  0.03775 0 0  0.0378 0 0  0.03785 0 0  0.0379 0 0  0.03795 0 0  0.038 0 0  0.03805 0 0  0.0381 0 0  0.0
[...]
<PointData  Scalars="f_13"> 
<DataArray  type="Float64"  Name="f_13"  format="ascii">3.0846283326003678e+66  1.3177096885656936e+62  5.7006785525823768e+61  3.3679331021029029e+61  2.2700647204070768e+61  1.6478791284705408e+61  1.2550737611537132e+61  9.8880816678065782e+60  7.9895521431631535e+60  6.5835472563267974e+60  5.5110767140460294e+60  4.6734003513953354e+60  4.0062588310634513e+60  3.4662137404594105e+60  3.0229623884996685e+60  2.6547973525775969e+60  2.3458119246282958e+60  2.0841192672245971e+60  1.8606830833055651e+60  1.6685295548683968e+60  1.5022039430548286e+60  1.3573882216021557e+60  1.2306271143762256e+60  1.1191285919124829e+60  1.0206164456390997e+60  9.3321988728815466e+59  8.5538986645487361e+59  7.8583493229373789e+59  7.2347157080316980e+59  6.6738538720833661e+59  6.1680049991651469e+59  5.7105521325565757e+59  5.2958253503844118e+59  4.9189446431331154e+59  4.5756923634853751e+59  4.2624090443787449e+59  3.9759078115013934e+59  3.7134036885905463e+59  3.4724549043532857e+59  3.2509139273563303e+59  3.0468864292918225e+59  2.8586967435325347e+59  2.6848586711456271e+59  2.5240507099625367e+59  2.3750949583595900e+59  2.2369390849277419e+59  2.1086408663838160e+59  1.9893548851196783e+59  1.8783210494577983e+59  1.7748546576432954e+59  1.6783377736880264e+59  1.5882117215974422e+59  1.5039705359820123e+59  1.4251552329391908e+59  1.3513487864620474e+59  1.2821717133382545e+59  1.2172781842273450e+59  1.1563525908889043e+59  1.0991065098170123e+59  1.0452760111700816e+59  9.9461926915636796e+58  9.4691443617676855e+58  9.0195774822813883e+58  8.5956183348797909e+58  8.1955419976295929e+58  7.8177587969478812e+58  7.4608021536482694e+58  7.1233176629582634e+58  6.8040532687555995e+58  6.5018504097315797e+58  6.2156360302660427e+58  5.9444153618445817e+58  5.6872653921601601e+58  5.4433289488680508e+58  5.2118093335167713e+58  4.9919654486363480e+58  4.7831073674817064e+58  4.5845923016313431e+58  4.3958209266405671e+58  4.2162340303382134e+58  4.0453094522163807e+58  3.8825592857635499e+58  3.7275273185919899e+58  3.5797866878611926e+58  3.4389377308449453e+58  3.3046060125682095e+58  3.1764405142844317e+58  3.0541119682026522e+58  2.9373113253319868e+58  2.8257483446098850e+58  2.7191502926392750e+58  2.6172607443944299e+58  2.5198384761806038e+58  2.4266564429607312e+58  2.3375008329048487e+58  2.2521701926838474e+58  2.1704746176274428e+58  2.0922350014041915e+58  2.0172823403655685e+58  1.9454570881324059e+58  1.8766085563955966e+58  1.8105943582581869e+58  1.7472798907671274e+58  1.6865378535734328e+58  1.6282478009224423e+58  1.5722957244142947e+58  1.5185736641908683e+58  1.4669793464017079e+58  1.4174158449798624e+58  1.3697912659206904e+58  1.3240184524042991e+58  1.2800147092368075e+58  1.2377015452081425e+58  1.1970044320759260e+58  1.1578525789871433e+58  1.1201787212425539e+58  1.0839189223941242e+58  1.0490123887438280e+58  1.0154012953836649e+58  9.8303062298221388e+57  9.5184800458315699e+57  9.2180358173628298e+57  8.9284986933213849e+57  8.6494162855796439e+57  8.3803574743531853e+57  8.1209112843914930e+57  7.8706858273426553e+57  7.6293073059852014e+57  7.3964190763277565e+57  7.1716807638606011e+57  6.9547674305049636e+57  6.7453687890474999e+57  6.5431884620705493e+57  6.3479432825950030e+57  6.1593626338435645e+57  5.9771878257086799e+57  5.8011715056728649e+57  5.6310771020805865e+57  5.4666782978013104e+57  5.3077585324532797e+57  5.1541105314785548e+57  5.0055358604717808e+57  4.8618445032692136e+57  4.7228544624014049e+57  4.5883913806025838e+57  4.4582881821536706e+57  4.3323847329133790e+57  4.2105275179643861e+57  4.0925693358690378e+57  3.9783690085917181e+57  3.8677911062036808e+57  3.7607056855407318e+57  3.6569880420350120e+57  3.5565184739897620e+57  3.4591820586102613e+57  3.3648684391455986e+57  3.2734716225346567e+57  3.1848897869860006e+57  3.0990250989550330e+57  3.0157835390136342e+57  2.9350747361370177e+57  2.8568118099603840e+57  2.7809112205838710e+57  2.7072926255287102e+57  2.6358787434702718e+57  2.5665952243951222e+57  2.4993705258492522e+57  2.4341357949635105e+57  2.3708247559599116e+57  2.3093736028590995e+57  2.2497208971248321e+57  2.1918074699959943e+57  2.1355763292704053e+57  2.0809725703176379e+57  2.0279432911102187e+57  1.9764375110740325e+57  1.9264060935695355e+57  1.8778016718254876e+57  1.8305785781565113e+57  1.7846927763047374e+57  1.7401017967542845e+57  1.6967646748753168e+57  1.6546418917619424e+57  1.6136953176352908e+57  1.5738881576898489e+57  1.5351849002674280e+57  1.4975512672491058e+57  1.4609541665611012e+57  1.4253616466958940e+57  1.3907428531548645e+57  1.3570679867235444e+57  1.3243082634950079e+57  1.2924358765611752e+57  1.2614239592958256e+57  1.2312465501569142e+57  1.2018785589393348e+57  1.1732957344127293e+57  1.1454746332821051e+57  1.1183925904120724e+57  1.0920276902584377e+57  1.0663587394535471e+57  1.0413652404944400e+57  1.0170273664852620e+57  9.9332593688773047e+56  9.7024239423566579e+56  9.4775878177166800e+56  9.2585772196600662e+56  9.0452239587968350e+56  8.8373652333539393e+56  8.6348434386182535e+56  8.4375059837832157e+56  8.2452051158849007e+56  8.0577977505275726e+56  7.8751453091127807e+56  7.6971135622989754e+56  7.5235724794311575e+56  7.3543960836919456e+56  7.1894623127365739e+56  7.0286528845851906e+56  6.8718531685558995e+56  6.7189520610317499e+56  6.5698418658639949e+56  6.4244181792228572e+56  6.2825797787152333e+56  6.1442285165968476e+56  6.0092692169139301e+56  5.8776095764166133e+56  5.7491600690932364e+56  5.6238338541811972e+56  5.5015466875162917e+56  5.3822168360884554e+56  5.2657649956774148e+56  5.1521142114472255e+56  5.0411898013838431e+56  4.9329192824647649e+56  4.8272322994544658e+56  4.7240605562239075e+56  4.6233377494965684e+56  4.5249995049276712e+56  4.4289833154270053e+56  4.3352284816396013e+56  4.2436760545020553e+56  4.1542687797956464e+56  4.0669510446206373e+56  3.9816688257193401e+56  3.8983696395783610e+56  3.8170024942433766e+56  3.7375178427824604e+56  3.6598675383365688e+56  3.5840047906982540e+56  3.5098841243621089e+56  3.4374613379926441e+56  3.3666934652574684e+56  3.2975387369757901e+56  3.2299565445341506e+56  3.1639074045232649e+56  3.0993529245516509e+56  3.0362557701934506e+56  2.9745796330295140e+56  2.9142891997424686e+56  2.8553501222279714e+56  2.7977289886858028e+56  2.7413932956559149e+56  2.6863114209658436e+56  2.6324525975572385e+56  2.5797868881604410e+56  2.5282851607872673e+56  2.4779190650132773e+56  2.4286610090219048e+56  2.3804841373838563e+56  2.3333623095462249e+56  2.2872700790066859e+56  2.2421826731490835e+56  2.1980759737175895e+56  2.1549264979075210e+56  2.1127113800516263e+56  2.0714083538815188e+56  2.0309957353446371e+56  1.9914524059578556e+56  1.9527577966795592e+56  1.9148918722826659e+56  1.8778351162116911e+56  1.8415685159076257e+56  1.8060735485849207e+56  1.7713321674454830e+56  1.7373267883151218e+56  1.7040402766883782e+56  1.6714559351682701e+56  1.6395574912878226e+56  1.6083290857008540e+56  1.5777552607298602e+56  1.5478209492592987e+56  1.5185114639629680e+56  1.4898124868546110e+56  1.4617100591512175e+56  1.4341905714388893e+56  1.4072407541314806e+56  1.3808476682125796e+56  1.3549986962517000e+56  1.3296815336859040e+56  1.3048841803583417e+56  1.2805949323055239e+56  1.2568023737854048e+56  1.2334953695386201e+56  1.2106630572755140e+56  1.1882948403817957e+56  1.1663803808359756e+56  1.1449095923318860e+56  1.1238726335998945e+56  1.1032599019205577e+56  1.0830620268247489e+56  1.0632698639744439e+56  1.0438744892185599e+56  1.0248671928184251e+56  1.0062394738376534e+56  9.8798303469134531e+55  9.7008977584973975e+55  9.5255179069156156e+55  9.3536136050250216e+55  9.1851094961441099e+55  9.0199320068089643e+55  8.8580093008522552e+55  8.6992712347649116e+55  8.5436493143019252e+55  8.3910766522946686e+55  8.2414879276335006e+55  8.0948193453856805e+55  7.9510085980144194e+55  7.8099948276664325e+55  7.6717185894960265e+55  7.5361218159949535e+55  7.4031477822983807e+55  7.2727410724378940e+55  7.1448475465138162e+55  7.0194143087596133e+55  6.8963896764723102e+55  6.7757231497835716e+55  6.6573653822467935e+55  6.5412681522165070e+55  6.4273843349969304e+55  6.3156678757375414e+55  6.2060737630538358e+55  6.0985580033524285e+55  5.9930775958402948e+55  5.8895905081981869e+55  5.7880556528994886e+55  5.6884328641558467e+55  5.5906828754717189e+55  5.4947672977905173e+55  5.4006485982154437e+55  5.3082900792888364e+55  5.2176558588140661e+55  5.1287108502047504e+55  5.0414207433464456e+55  4.9557519859563065e+55  4.8716717654268413e+55  4.7891479911400757e+55  4.7081492772391559e+55  4.6286449258444859e+55  4.5506049107020641e+55  4.4739998612521072e+55  4.3988010471061984e+55  4.3249803629217423e+55  4.2525103136627295e+55  4.1813640002362026e+55  4.1115151054941038e+55  4.0429378805904048e+55  3.9756071316839767e+55  3.9094982069775840e+55  3.8445869840839042e+55  3.7808498577097678e+55  3.7182637276498535e+55  3.6568059870815446e+55  3.5964545111527627e+55  3.5371876458549703e+55  3.4789841971735463e+55  3.4218234205081450e+55  3.3656850103558492e+55  3.3105490902499769e+55  3.2563962029478729e+55  3.2032073008608833e+55  3.1509637367202059e+55  3.0996472544723189e+55  3.0492399803978674e+55  2.9997244144481885e+55  2.9510834217936418e+55  2.9033002245782582e+55  2.8563583938752242e+55  2.8102418418379467e+55  2.7649348140416452e+55  2.7204218820103988e+55  2.6766879359248937e+55  2.6337181775061336e+55  2.5914981130705335e+55  2.5500135467520224e+55  2.5092505738867302e+55  2.4691955745561901e+55  2.4298352072848590e+55  2.3911564028880377e+55  2.3531463584663699e+55  2.3157925315430766e+55  2.2790826343403734e+55  2.2430046281914324e+55  2.2075467180845081e+55  2.1726973473358203e+55  2.1384451923879564e+55  2.1047791577306014e+55  2.0716883709404863e+55  2.0391621778376043e+55  2.0071901377546970e+55  1.9757620189172008e+55  1.9448677939309010e+55  1.9144976353745340e+55  1.8846419114947922e+55  1.8552911820011161e+55  1.8264361939577999e+55  1.7980678777710274e+55  1.7701773432684407e+55  1.7427558758689735e+55  1.7157949328406916e+55  1.6892861396445138e+55  1.6632212863616523e+55  1.6375923242027307e+55  1.6123913620965837e+55  1.5876106633567691e+55  1.5632426424239125e+55  1.5392798616820098e+55  1.5157150283469003e+55  1.4925409914251502e+55  1.4697507387416302e+55  1.4473373940341446e+55  1.4252942141134482e+55  1.4036145860871145e+55  1.3822920246456899e+55  1.3613201694096328e+55  1.3406927823355990e+55  1.3204037451806204e+55  1.3004470570228193e+55  1.2808168318372789e+55  1.2615072961257721e+55  1.2425127865990643e+55  1.2238277479105260e+55  1.2054467304398526e+55  1.1873643881256937e+55  1.1695754763460353e+55  1.1520748498452219e+55  1.1348574607064824e+55  1.1179183563689341e+55  1.1012526776879773e+55  1.0848556570381005e+55  1.0687226164570645e+55  1.0528489658305247e+55  1.0372302011161499e+55  1.0218619026062800e+55  1.0067397332282775e+55  9.9185943688165890e+54  9.7721683681115772e+54  9.6280783401491564e+54  9.4862840568694224e+54  9.3467460369310048e+54  9.2094255307980977e+54  9.0742845061472845e+54  8.9412856335868589e+54  8.8103922726813396e+54  8.6815684582742914e+54  8.5547788871026160e+54  8.4299889046956741e+54  8.3071644925526483e+54  8.1862722555919274e+54  8.0672794098663318e+54  7.9501537705380466e+54  7.8348637401075548e+54  7.7213782968906458e+54  7.6096669837379206e+54  7.4996998969915941e+54  7.3914476756738046e+54  7.2848814909016539e+54  7.1799730355236415e+54  7.0766945139725829e+54  6.9750186323302768e+54  6.8749185885989992e+54  6.7763680631754390e+54  6.6793412095223593e+54  6.5838126450337769e+54  6.4897574420892153e+54  6.3971511192929226e+54  6.3059696328939639e+54  6.2161893683831218e+54  6.1277871322628343e+54  6.0407401439862380e+54  5.9550260280616308e+54  5.8706228063187926e+54  5.7875088903334783e+54  5.7056630740068232e+54  5.6250645262960174e+54  5.5456927840932201e+54  5.4675277452492523e+54  5.3905496617390421e+54  5.3147391329657671e+54  5.2400770992005660e+54  5.1665448351550099e+54  5.0941239436833771e+54  5.0227963496119525e+54  4.9525442936926578e+54  4.8833503266782324e+54  4.8151973035164865e+54  4.7480683776609494e+54  4.6819469954954511e+54  4.6168168908703028e+54  4.5526620797474898e+54  4.4894668549527537e+54  4.4272157810321499e+54  4.3658936892108953e+54  4.3054856724523711e+54  4.2459770806150952e+54  4.1873535157056613e+54  4.1296008272254940e+54  4.0727051076096016e+54  4.0166526877552321e+54  3.9614301326386087e+54  3.9070242370179344e+54  3.8534220212207489e+54  3.8006107270139727e+54  3.7485778135548184e+54  3.6973109534209244e+54  3.6467980287180871e+54  3.5970271272638702e+54  3.5479865388456380e+54  3.4996647515513389e+54  3.4520504481716511e+54  3.4051325026719100e+54  3.3588999767324038e+54  3.3133421163556730e+54  3.2684483485393247e+54  3.2242082780131258e+54  3.1806116840389737e+54  3.1376485172724599e+54  3.0953088966848031e+54  3.0535831065438502e+54  3.0124615934530061e+54  2.9719349634468414e+54  2.9319939791422517e+54  2.8926295569440595e+54  2.8538327643038714e+54  2.8155948170312039e+54  2.7779070766557288e+54  2.7407610478396787e+54  2.7041483758393273e+54  2.6680608440145834e+54  2.6324903713857412e+54  2.5974290102363954e+54  2.5628689437616319e+54  2.5288024837605493e+54  2.4952220683722205e+54  2.4621202598542682e+54  2.4294897424031343e+54  2.3973233200152649e+54  2.3656139143883378e+54  2.3343545628617902e+54  2.3035384163958225e+54  2.2731587375881087e+54  2.2432088987275140e+54  2.2136823798840056e+54  2.1845727670341128e+54  2.1558737502211872e+54  2.1275791217497781e+54  2.0996827744134779e+54  2.0721786997555384e+54  2.0450609863616368e+54  2.0183238181841466e+54  1.9919614728972975e+54  1.9659683202826297e+54  1.9403388206441220e+54  1.9150675232524324e+54  1.8901490648176700e+54  1.8655781679901607e+54  1.8413496398886382e+54  1.8174583706553229e+54  1.7938993320373991e+54  1.7706675759943253e+54  1.7477582333305328e+54  1.7251665123529748e+54  1.7028876975530599e+54  1.6809171483125121e+54  1.6592502976326731e+54  1.6378826508868109e+54  1.6168097845949823e+54  1.5960273452210079e+54  1.5755310479911619e+54  1.5553166757341261e+54  1.5353800777418295e+54  1.5157171686507377e+54  1.4963239273432502e+54  1.4771963958687742e+54  1.4583306783841242e+54  1.4397229401128846e+54  1.4213694063233400e+54  1.4032663613246691e+54  1.3854101474810146e+54  1.3677971642431032e+54  1.3504238671971042e+54  1.3332867671303532e+54  1.3163824291136788e+54  1.2997074715999600e+54  1.2832585655386681e+54  1.2670324335060486e+54  1.2510258488506587e+54  1.2352356348539871e+54  1.2196586639058445e+54  1.2042918566942877e+54  1.1891321814097705e+54  1.1741766529632604e+54  1.1594223322180889e+54  1.1448663252352343e+54  1.1305057825318255e+54  1.1163378983525992e+54  1.1023599099540768e+54  1.0885690969012300e+54  1.0749627803763851e+54  1.0615383225001640e+54  1.0482931256642165e+54  1.0352246318755447e+54  1.0223303221121954e+54  1.0096077156901036e+54  9.9705436964090116e+53  9.8466787810047484e+53  9.7244587170808121e+53  9.6038601701582094e+53  9.4848601590828539e+53  9.3674360503218296e+53  9.2515655523578427e+53  9.1372267101797509e+53  9.0243978998676262e+53  8.9130578232706026e+53  8.8031855027757322e+53  8.6947602761663323e+53  8.5877617915680520e+53  8.4821700024812144e+53  8.3779651628977016e+53  8.2751278225009552e+53  8.1736388219476639e+53  8.0734792882294626e+53  7.9746306301134096e+53  7.8770745336595740e+53  7.7807929578147365e+53  7.6857681300803214e+53  7.5919825422536957e+53  7.4994189462412529e+53  7.4080603499419887e+53  7.3178900132005360e+53  7.2288914438281331e+53  7.1410483936904802e+53  7.0543448548612763e+53  6.9687650558401591e+53  6.8842934578341117e+53  6.8009147511009694e+53  6.7186138513540484e+53  6.6373758962268604e+53  6.5571862417966396e+53  6.4780304591659598e+53  6.3998943311011089e+53  6.3227638487264020e+53  6.2466252082733755e+53  6.1714648078838734e+53  6.0972692444662024e+53  6.0240253106032268e+53  5.9517199915116827e+53  5.8803404620516726e+53  5.8098740837854841e+53  5.7403084020849944e+53  5.6716311432866330e+53  5.6038302118931796e+53  5.5368936878215438e+53  5.4708098236956915e+53  5.4055670421840800e+53  5.3411539333806035e+53  5.2775592522284798e+53  5.2147719159861910e+53  5.1527810017349259e+53  5.0915757439265802e+53  5.0311455319717793e+53  4.9714799078672128e+53  4.9125685638614769e+53  4.8544013401589692e+53  4.7969682226609723e+53  4.7402593407433927e+53  4.6842649650705488e+53  4.6289755054442816e+53  4.5743815086879143e+53  4.5204736565643442e+53  4.4672427637277602e+53  4.4146797757083911e+53  4.3627757669296462e+53  4.3115219387572772e+53  4.2609096175797819e+53  4.2109302529197037e+53  4.1615754155752212e+53  4.1128367957914725e+53  4.0647062014612404e+53  4.0171755563543463e+53  3.9702368983753821e+53  3.9238823778492441e+53  3.8781042558339615e+53  3.8328949024605030e+53  3.7882467952989234e+53  3.7441525177505453e+53  3.7006047574656084e+53  3.6575963047861470e+53  3.6151200512134652e+53  3.5731689878998970e+53  3.5317362041644704e+53  3.4908148860320018e+53  3.4503983147953051e+53  3.4104798656000363e+53  3.3710530060518940e+53  3.3321112948457204e+53  3.2936483804161833e+53  3.2556579996096809e+53  3.2181339763770724e+53  3.1810702204869396e+53  3.1444607262590405e+53  3.1082995713175181e+53  3.0725809153636949e+53  3.0372989989680133e+53  3.0024481423808336e+53  2.9680227443617951e+53  2.9340172810274011e+53  2.9004263047165953e+53  2.8672444428739170e+53  2.8344663969500684e+53  2.8020869413195375e+53  2.7701009222149814e+53  2.7385032566781759e+53  2.7072889315271636e+53  2.6764530023393903e+53  2.6459905924505822e+53  2.6158968919690262e+53  2.5861671568051161e+53  2.5567967077158129e+53  2.5277809293638335e+53  2.4991152693913031e+53  2.4707952375076643e+53  2.4428164045915679e+53  2.4151744018065470e+53  2.3878649197302514e+53  2.3608837074970019e+53  2.3342265719534910e+53  2.3078893768273483e+53  2.2818680419084319e+53  2.2561585422426067e+53  2.2307569073377856e+53  2.2056592203821069e+53  2.1808616174739655e+53  2.1563602868637700e+53  2.1321514682072091e+53  2.1082314518298430e+53  2.0845965780028686e+53  2.0612432362298189e+53  2.0381678645440861e+53  2.0153669488170470e+53  1.9928370220766425e+53  1.9705746638362563e+53  1.9485764994336931e+53  1.9268391993801239e+53  1.9053594787188347e+53  1.8841340963936122e+53  1.8631598546266245e+53  1.8424335983056342e+53  1.8219522143804196e+53  1.8017126312682019e+53  1.7817118182680301e+53  1.7619467849838771e+53  1.7424145807563837e+53  1.7231122941030808e+53  1.7040370521669569e+53  1.6851860201732638e+53  1.6665564008943971e+53  1.6481454341227366e+53  1.6299503961513442e+53  1.6119685992623426e+53  1.5941973912229246e+53  1.5766341547888084e+53  1.5592763072150609e+53  1.5421212997741660e+53  1.5251666172811988e+53  1.5084097776260526e+53  1.4918483313125412e+53  1.4754798610043139e+53  1.4593019810774601e+53  1.4433123371796994e+53  1.4275086057960681e+53  1.4118884938209816e+53  1.3964497381365813e+53  1.3811901051972824e+53  1.3661073906203921e+53  1.3511994187827494e+53  1.3364640424232493e+53  1.3218991422511955e+53  1.3075026265603664e+53  1.2932724308487235e+53  1.2792065174436644e+53  1.2653028751327373e+53  1.2515595187997390e+53  1.2379744890660964e+53  1.2245458519374812e+53  1.2112716984555442e+53  1.1981501443547009e+53  1.1851793297239150e+53  1.1723574186733617e+53  1.1596825990059310e+53  1.1471530818934762e+53  1.1347671015577469e+53  1.1225229149559298e+53  1.1104188014707138e+53  1.0984530626048520e+53  1.0866240216800982e+53  1.0749300235404932e+53  1.0633694342599081e+53  1.0519406408537936e+53  1.0406420509950805e+53  1.0294720927341360e+53  1.0184292142227456e+53  1.0075118834420525e+53  9.9671858793438055e+52  9.8604783453890479e+52  9.7549814913108669e+52  9.6506807636583713e+52  9.5475617942434117e+52  9.4456103976448813e+52  9.3448125687486629e