<?xml version="1.0"?>
<VTKFile type="UnstructuredGrid"  version="0.1"  >
<UnstructuredGrid>
<Piece  NumberOfPoints="10001" NumberOfCells="10000">
<Points>
<DataArray  type="Float64"  NumberOfComponents="3"  format="ascii">0 0 0  0.0001 0 0  0.0002 0 0  0.0003 0 0  0.0004 0 0  0.0005 0 0  0.0005999999999999999 0 0  0.0007 0 0  0.0008 0 0  0.0009 0 0  0.001 0 0  0.0011 0 0  0.0012 0 0  0.0013 0 0  0.0014 0 0  0.0015 0 0  0.0016 0 0  0.0017 0 0  0.0018 0 0  0.0019 0 0  0.002 0 0  0.0021 0 0  0.0022 0 0  0.0023 0 0  0.0024 0 0  0.0025 0 0  0.0026 0 0  0.0027 0 0  0.0028 0 0  0.0029 0 0  0.003 0 0  0.0031 0 0  0.0032 0 0  0.0033 0 0  0.0034 0 0  0.0035 0 0  0.0036 0 0  0.0037 0 0  0.0038 0 0  0.0039 0 0  0.004 0 0  0.0041 0 0  0.0042 0 0  0.0043 0 0  0.0044 0 0  0.0045 0 0  0.0046 0 0  0.0047 0 0  0.0048 0 0  0.0049 0 0  0.005 0 0  0.0051 0 0  0.0052 0 0  0.0053 0 0  0.0054 0 0  0.0055 0 0  0.0056 0 0  0.0057 0 0  0.0058 0 0  0.0059 0 0  0.006 0 0  0.0061 0 0  0.0062 0 0  0.0063 0 0  0.0064 0 0  0.0065 0 0  0.0066 0 0  0.0067 0 0  0.0068 0 0  0.0069 0 0  0.007 0 0  0.0071 0 0  0.0072 0 0  0.0073 0 0  0.0074 0 0  0.0075 0 0  0.0076 0 0  0.0077 0 0  0.0078 0 0  0.007900000000000001 0 0  0.008 0 0  0.0081 0 0  0.008200000000000001 0 0  0.0083 0 0  0.008399999999999999 0 0  0.008500000000000001 0 0  0.0086 0 0  0.008699999999999999 0 0  0.008800000000000001 0 0  0.0089 0 0  0.008999999999999999 0 0  0.0091 0 0  0.0092 0 0  0.009299999999999999 0 0  0.0094 0 0  0.0095 0 0  0.009599999999999999 0 0  0.0097 0 0  0.0098 0 0  0.009900000000000001 0 0  0.01 0 0  0.0101 0 0  0.0102 0 0  0.0103 0 0  0.0104 0 0  0.0105 0 0  0.0106 0 0  0.0107 0 0  0.0108 0 0  0.0109 0 0  0.011 0 0  0.0111 0 0  0.0112 0 0  0.0113 0 0  0.0114 0 0  0.0115 0 0  0.0116 0 0  0.0117 0 0  0.0118 0 0  0.0119 0 0  0.012 0 0  0.0121 0 0  0.0122 0 0  0.0123 0 0  0.0124 0 0  0.0125 0 0  0.0126 0 0  0.0127 0 0  0.0128 0 0  0.0129 0 0  0.013 0 0  0.0131 0 0  0.0132 0 0  0.0133 0 0  0.0134 0 0  0.0135 0 0  0.0136 0 0  0.0137 0 0  0.0138 0 0  0.0139 0 0  0.014 0 0  0.0141 0 0  0.0142 0 0  0.0143 0 0  0.0144 0 0  0.0145 0 0  0.0146 0 0  0.0147 0 0  0.0148 0 0  0.0149 0 0  0.015 0 0  0.0151 0 0  0.0152 0 0  0.0153 0 0  0.0154 0 0  0.0155 0 0  0.0156 0 0  0.0157 0 0  0.0158 0 0  0.0159 0 0  0.016 0 0  0.0161 0 0  0.0162 0 0  0.0163 0 0  0.0164 0 0  0.0165 0 0  0.0166 0 0  0.0167 0 0  0.0168 0 0  0.0169 0 0  0.017 0 0  0.0171 0 0  0.0172 0 0  0.0173 0 0  0.0174 0 0  0.0175 0 0  0.0176 0 0  0.0177 0 0  0.0178 0 0  0.0179 0 0  0.018 0 0  0.0181 0 0  0.0182 0 0  0.0183 0 0  0.0184 0 0  0.0185 0 0  0.0186 0 0  0.0187 0 0  0.0188 0 0  0.0189 0 0  0.019 0 0  0.0191 0 0  0.0192 0 0  0.0193 0 0  0.0194 0 0  0.0195 0 0  0.0196 0 0  0.0197 0 0  0.0198 0 0  0.0199 0 0  0.02 0 0  0.0201 0 0  0.0202 0 0  0.0203 0 0  0.0204 0 0  0.0205 0 0  0.0206 0 0  0.0207 0 0  0.0208 0 0  0.0209 0 0  0.021 0 0  0.0211 0 0  0.0212 0 0  0.0213 0 0  0.0214 0 0  0.0215 0 0  0.0216 0 0  0.0217 0 0  0.0218 0 0  0.0219 0 0  0.022 0 0  0.0221 0 0  0.0222 0 0  0.0223 0 0  0.0224 0 0  0.0225 0 0  0.0226 0 0  0.0227 0 0  0.0228 0 0  0.0229 0 0  0.023 0 0  0.0231 0 0  0.0232 0 0  0.0233 0 0  0.0234 0 0  0.0235 0 0  0.0236 0 0  0.0237 0 0  0.0238 0 0  0.0239 0 0  0.024 0 0  0.0241 0 0  0.0242 0 0  0.0243 0 0  0.0244 0 0  0.0245 0 0  0.0246 0 0  0.0247 0 0  0.0248 0 0  0.0249 0 0  0.025 0 0  0.0251 0 0  0.0252 0 0  0.0253 0 0  0.0254 0 0  0.0255 0 0  0.0256 0 0  0.0257 0 0  0.0258 0 0  0.0259 0 0  0.026 0 0  0.0261 0 0  0.0262 0 0  0.0263 0 0  0.0264 0 0  0.0265 0 0  0.0266 0 0  0.0267 0 0  0.0268 0 0  0.0269 0 0  0.027 0 0  0.0271 0 0  0.0272 0 0  0.0273 0 0  0.0274 0 0  0.0275 0 0  0.0276 0 0  0.0277 0 0  0.0278 0 0  0.0279 0 0  0.028 0 0  0.0281 0 0  0.0282 0 0  0.0283 0 0  0.0284 0 0  0.0285 0 0  0.0286 0 0  0.0287 0 0  0.0288 0 0  0.0289 0 0  0.029 0 0  0.0291 0 0  0.0292 0 0  0.0293 0 0  0.0294 0 0  0.0295 0 0  0.0296 0 0  0.0297 0 0  0.0298 0 0  0.0299 0 0  0.03 0 0  0.0301 0 0  0.0302 0 0  0.0303 0 0  0.0304 0 0  0.0305 0 0  0.0306 0 0  0.0307 0 0  0.0308 0 0  0.0309 0 0  0.031 0 0  0.0311 0 0  0.0312 0 0  0.0313 0 0  0.0314 0 0  0.0315 0 0  0.0316 0 0  0.0317 0 0  0.0318 0 0  0.0319 0 0  0.032 0 0  0.0321 0 0  0.0322 0 0  0.0323 0 0  0.0324 0 0  0.0325 0 0  0.0326 0 0  0.0327 0 0  0.0328 0 0  0.0329 0 0  0.033 0 0  0.0331 0 0  0.0332 0 0  0.0333 0 0  0.0334 0 0  0.0335 0 0  0.0336 0 0  0.0337 0 0  0.0338 0 0  0.0339 0 0  0.034 0 0  0.0341 0 0  0.0342 0 0  0.0343 0 0  0.0344 0 0  0.0345 0 0  0.0346 0 0  0.0347 0 0  0.0348 0 0  0.0349 0 0  0.035 0 0  0.0351 0 0  0.0352 0 0  0.0353 0 0  0.0354 0 0  0.0355 0 0  0.0356 0 0  0.0357 0 0  0.0358 0 0  0.0359 0 0  0.036 0 0  0.0361 0 0  0.0362 0 0  0.0363 0 0  0.0364 0 0  0.0365 0 0  0.0366 0 0  0.0367 0 0  0.0368 0 0  0.0369 0 0  0.037 0 0  0.0371 0 0  0.0372 0 0  0.0373 0 0  0.0374 0 0  0.0375 0 0  0.0376 0 0  0.0377 0 0  0.0378 0 0  0.0379 0 0  0.038 0 0  0.0381 0 0  0.0382 0 0  0.0383 0 0  0.0384 0 0  0.0385 0 0  0.0386 0 0  0.0387 0 0  0.0388 0 0  0.0389 0 0  0.039 0 0  0.0391 0 0  0.0392 0 0  0.0393 0 0  0.0394 0 0  0.0395 0 0  0.0396 0 0  0.0397 0 0  0.0398 0 0  0.0399 0 0  0.04 0 0  0.0401 0 0  0.0402 0 0  0.0403 0 0  0.0404 0 0  0.0405 0 0  0.0406 0 0  0.0407 0 0  0.0408 0 0  0.0409 0 0  0.041 0 0  0.0411 0 0  0.0412 0 0  0.0413 0 0  0.0414 0 0  0.0415 0 0  0.0416 0 0  0.0417 0 0  0.0418 0 0  0.0419 0 0  0.042 0 0  0.0421 0 0  0.0422 0 0  0.0423 0 0  0.0424 0 0  0.0425 0 0  0.0426 0 0  0.0427 0 0  0.0428 0 0  0.0429 0 0  0.043 0 0  0.0431 0 0  0.0432 0 0  0.0433 0 0  0.0434 0 0  0.0435 0 0  0.0436 0 0  0.0437 0 0  0.0438 0 0  0.0439 0 0  0.044 0 0  0.0441 0 0  0.0442 0 0  0.0443 0 0  0.0444 0 0  0.0445 0 0  0.0446 0 0  0.0447 0 0  0.0448 0 0  0.0449 0 0  0.045 0 0  0.0451 0 0  0.0452 0 0  0.0453 0 0  0.0454 0 0  0.0455 0 0  0.0456 0 0  0.0457 0 0  0.0458 0 0  0.0459 0 0  0.046 0 0  0.0461 0 0  0.0462 0 0  0.0463 0 0  0.0464 0 0  0.0465 0 0  0.0466 0 0  0.0467 0 0  0.0468 0 0  0.0469 0 0  0.047 0 0  0.0471 0 0  0.0472 0 0  0.0473 0 0  0.0474 0 0  0.0475 0 0  0.0476 0 0  0.0477 0 0  0.0478 0 0  0.0479 0 0  0.048 0 0  0.0481 0 0  0.0482 0 0  0.0483 0 0  0.0484 0 0  0.0485 0 0  0.0486 0 0  0.0487 0 0  0.0488 0 0  0.0489 0 0  0.049 0 0  0.0491 0 0  0.0492 0 0  0.0493 0 0  0.0494 0 0  0.0495 0 0  0.0496 0 0  0.0497 0 0  0.0498 0 0  0.0499 0 0  0.05 0 0  0.0501 0 0  0.0502 0 0  0.0503 0 0  0.0504 0 0  0.0505 0 0  0.0506 0 0  0.0507 0 0  0.0508 0 0  0.0509 0 0  0.051 0 0  0.0511 0 0  0.0512 0 0  0.0513 0 0  0.0514 0 0  0.0515 0 0  0.0516 0 0  0.0517 0 0  0.0518 0 0  0.0519 0 0  0.052 0 0  0.0521 0 0  0.0522 0 0  0.0523 0 0  0.0524 0 0  0.0525 0 0  0.0526 0 0  0.0527 0 0  0.0528 0 0  0.0529 0 0  0.053 0 0  0.0531 0 0  0.0532 0 0  0.0533 0 0  0.0534 0 0  0.0535 0 0  0.0536 0 0  0.0537 0 0  0.0538 0 0  0.0539 0 0  0.054 0 0  0.0541 0 0  0.0542 0 0  0.0543 0 0  0.0544 0 0  0.0545 0 0  0.0546 0 0  0.0547 0 0  0.0548 0 0  0.0549 0 0  0.055 0 0  0.0551 0 0  0.0552 0 0  0.0553 0 0  0.0554 0 0  0.0555 0 0  0.0556 0 0  0.0557 0 0  0.0558 0 0  0.0559 0 0  0.056 0 0  0.0561 0 0  0.0562 0 0  0.0563 0 0  0.0564 0 0  0.0565 0 0  0.0566 0 0  0.0567 0 0  0.0568 0 0  0.0569 0 0  0.057 0 0  0.0571 0 0  0.0572 0 0  0.0573 0 0  0.0574 0 0  0.0575 0 0  0.0576 0 0  0.0577 0 0  0.0578 0 0  0.0579 0 0  0.058 0 0  0.0581 0 0  0.0582 0 0  0.0583 0 0  0.0584 0 0  0.0585 0 0  0.0586 0 0  0.0587 0 0  0.0588 0 0  0.0589 0 0  0.059 0 0  0.0591 0 0  0.0592 0 0  0.0593 0 0  0.0594 0 0  0.0595 0 0  0.0596 0 0  0.0597 0 0  0.0598 0 0  0.0599 0 0  0.06 0 0  0.0601 0 0  0.0602 0 0  0.0603 0 0  0.0604 0 0  0.0605 0 0  0.0606 0 0  0.0607 0 0  0.0608 0 0  0.0609 0 0  0.061 0 0  0.0611 0 0  0.0612 0 0  0.0613 0 0  0.0614 0 0  0.0615 0 0  0.0616 0 0  0.0617 0 0  0.0618 0 0  0.0619 0 0  0.062 0 0  0.0621 0 0  0.0622 0 0  0.0623 0 0  0.0624 0 0  0.0625 0 0  0.0626 0 0  0.06270000000000001 0 0  0.06279999999999999 0 0  0.0629 0 0  0.063 0 0  0.0631 0 0  0.06320000000000001 0 0  0.0633 0 0  0.0634 0 0  0.0635 0 0  0.0636 0 0  0.06370000000000001 0 0  0.0638 0 0  0.0639 0 0  0.064 0 0  0.0641 0 0  0.06419999999999999 0 0  0.0643 0 0  0.0644 0 0  0.0645 0 0  0.0646 0 0  0.06469999999999999 0 0  0.0648 0 0  0.0649 0 0  0.065 0 0  0.06510000000000001 0 0  0.06519999999999999 0 0  0.0653 0 0  0.0654 0 0  0.0655 0 0  0.06560000000000001 0 0  0.06569999999999999 0 0  0.0658 0 0  0.0659 0 0  0.066 0 0  0.06610000000000001 0 0  0.06619999999999999 0 0  0.0663 0 0  0.0664 0 0  0.0665 0 0  0.06660000000000001 0 0  0.0667 0 0  0.0668 0 0  0.0669 0 0  0.067 0 0  0.06710000000000001 0 0  0.0672 0 0  0.0673 0 0  0.0674 0 0  0.0675 0 0  0.06759999999999999 0 0  0.0677 0 0  0.0678 0 0  0.0679 0 0  0.068 0 0  0.06809999999999999 0 0  0.0682 0 0  0.0683 0 0  0.0684 0 0  0.06850000000000001 0 0  0.06859999999999999 0 0  0.0687 0 0  0.0688 0 0  0.0689 0 0  0.06900000000000001 0 0  0.06909999999999999 0 0  0.0692 0 0  0.0693 0 0  0.0694 0 0  0.06950000000000001 0 0  0.0696 0 0  0.0697 0 0  0.0698 0 0  0.0699 0 0  0.07000000000000001 0 0  0.0701 0 0  0.0702 0 0  0.0703 0 0  0.0704 0 0  0.07049999999999999 0 0  0.0706 0 0  0.0707 0 0  0.0708 0 0  0.0709 0 0  0.07099999999999999 0 0  0.0711 0 0  0.0712 0 0  0.0713 0 0  0.07140000000000001 0 0  0.07149999999999999 0 0  0.0716 0 0  0.0717 0 0  0.0718 0 0  0.07190000000000001 0 0  0.07199999999999999 0 0  0.0721 0 0  0.0722 0 0  0.0723 0 0  0.07240000000000001 0 0  0.0725 0 0  0.0726 0 0  0.0727 0 0  0.0728 0 0  0.07290000000000001 0 0  0.073 0 0  0.0731 0 0  0.0732 0 0  0.0733 0 0  0.07340000000000001 0 0  0.0735 0 0  0.0736 0 0  0.0737 0 0  0.0738 0 0  0.07389999999999999 0 0  0.074 0 0  0.0741 0 0  0.0742 0 0  0.0743 0 0  0.07439999999999999 0 0  0.0745 0 0  0.0746 0 0  0.0747 0 0  0.07480000000000001 0 0  0.07489999999999999 0 0  0.075 0 0  0.0751 0 0  0.0752 0 0  0.07530000000000001 0 0  0.07539999999999999 0 0  0.0755 0 0  0.0756 0 0  0.0757 0 0  0.07580000000000001 0 0  0.0759 0 0  0.076 0 0  0.0761 0 0  0.0762 0 0  0.07630000000000001 0 0  0.0764 0 0  0.0765 0 0  0.0766
[...]
<PointData  Scalars="f_18"> 
<DataArray  type="Float64"  Name="f_18"  format="ascii">0.0000000000000000e+00  1.7755171746685164e-33  3.5510341741005135e-33  5.3265508230594878e-33  7.1020669463089718e-33  8.8775823686125492e-33  1.0653096914733872e-32  1.2428610409436686e-32  1.4204122677484830e-32  1.5979633543642267e-32  1.7755142832673107e-32  1.9530650369341605e-32  2.1306155978412186e-32  2.3081659484649475e-32  2.4857160712818298e-32  2.6632659487683724e-32  2.8408155634011034e-32  3.0183648976565775e-32  3.1959139340113795e-32  3.3734626549421222e-32  3.5510110429254500e-32  3.7285590804380381e-32  3.9061067499565998e-32  4.0836540339578809e-32  4.2612009149186688e-32  4.4387473753157885e-32  4.6162933976261052e-32  4.7938389643265298e-32  4.9713840578940183e-32  5.1489286608055709e-32  5.3264727555382389e-32  5.5040163245691232e-32  5.6815593503753752e-32  5.8591018154342009e-32  6.0366437022228623e-32  6.2141849932186760e-32  6.3917256708990210e-32  6.5692657177413357e-32  6.7468051162231160e-32  6.9243438488219284e-32  7.1018818980154025e-32  7.2794192462812338e-32  7.4569558760971878e-32  7.6344917699411056e-32  7.8120269102908938e-32  7.9895612796245360e-32  8.1670948604200963e-32  8.3446276351557093e-32  8.5221595863095894e-32  8.6996906963600418e-32  8.8772209477854438e-32  9.0547503230642629e-32  9.2322788046750516e-32  9.4098063750964546e-32  9.5873330168072018e-32  9.7648587122861141e-32  9.9423834440121142e-32  1.0119907194464206e-31  1.0297429946121499e-31  1.0474951681463203e-31  1.0652472382968623e-31  1.0829992033117169e-31  1.1007510614388349e-31  1.1185028109261787e-31  1.1362544500217209e-31  1.1540059769734446e-31  1.1717573900293447e-31  1.1895086874374266e-31  1.2072598674457075e-31  1.2250109283022166e-31  1.2427618682549939e-31  1.2605126855520921e-31  1.2782633784415756e-31  1.2960139451715218e-31  1.3137643839900190e-31  1.3315146931451696e-31  1.3492648708850892e-31  1.3670149154579046e-31  1.3847648251117565e-31  1.4025145980947996e-31  1.4202642326552010e-31  1.4380137270411424e-31  1.4557630795008191e-31  1.4735122882824393e-31  1.4912613516342265e-31  1.5090102678044195e-31  1.5267590350412691e-31  1.5445076515930430e-31  1.5622561157080232e-31  1.5800044256345056e-31  1.5977525796208028e-31  1.6155005759152426e-31  1.6332484127661671e-31  1.6509960884219356e-31  1.6687436011309227e-31  1.6864909491415189e-31  1.7042381307021311e-31  1.7219851440611835e-31  1.7397319874671152e-31  1.7574786591683837e-31  1.7752251574134620e-31  1.7929714804508414e-31  1.8107176265290302e-31  1.8284635938965534e-31  1.8462093808019547e-31  1.8639549854937949e-31  1.8817004062206530e-31  1.8994456412311261e-31  1.9171906887738301e-31  1.9349355470973988e-31  1.9526802144504851e-31  1.9704246890817604e-31  1.9881689692399149e-31  2.0059130531736588e-31  2.0236569391317213e-31  2.0414006253628500e-31  2.0591441101158144e-31  2.0768873916394032e-31  2.0946304681824233e-31  2.1123733379937035e-31  2.1301159993220932e-31  2.1478584504164620e-31  2.1656006895256997e-31  2.1833427148987173e-31  2.2010845247844479e-31  2.2188261174318453e-31  2.2365674910898840e-31  2.2543086440075601e-31  2.2720495744338926e-31  2.2897902806179213e-31  2.3075307608087086e-31  2.3252710132553406e-31  2.3430110362069236e-31  2.3607508279125875e-31  2.3784903866214857e-31  2.3962297105827938e-31  2.4139687980457104e-31  2.4317076472594574e-31  2.4494462564732811e-31  2.4671846239364507e-31  2.4849227478982599e-31  2.5026606266080264e-31  2.5203982583150912e-31  2.5381356412688190e-31  2.5558727737186018e-31  2.5736096539138543e-31  2.5913462801040164e-31  2.6090826505385539e-31  2.6268187634669565e-31  2.6445546171387406e-31  2.6622902098034483e-31  2.6800255397106464e-31  2.6977606051099275e-31  2.7154954042509102e-31  2.7332299353832411e-31  2.7509641967565910e-31  2.7686981866206603e-31  2.7864319032251728e-31  2.8041653448198823e-31  2.8218985096545674e-31  2.8396313959790352e-31  2.8573640020431195e-31  2.8750963260966828e-31  2.8928283663896143e-31  2.9105601211718329e-31  2.9282915886932832e-31  2.9460227672039396e-31  2.9637536549538063e-31  2.9814842501929133e-31  2.9992145511713213e-31  3.0169445561391207e-31  3.0346742633464286e-31  3.0524036710433938e-31  3.0701327774801948e-31  3.0878615809070379e-31  3.1055900795741621e-31  3.1233182717318331e-31  3.1410461556303483e-31  3.1587737295200369e-31  3.1765009916512561e-31  3.1942279402743957e-31  3.2119545736398769e-31  3.2296808899981504e-31  3.2474068875996992e-31  3.2651325646950371e-31  3.2828579195347087e-31  3.3005829503692930e-31  3.3183076554493991e-31  3.3360320330256695e-31  3.3537560813487772e-31  3.3714797986694291e-31  3.3892031832383643e-31  3.4069262333063550e-31  3.4246489471242075e-31  3.4423713229427591e-31  3.4600933590128818e-31  3.4778150535854805e-31  3.4955364049114935e-31  3.5132574112418953e-31  3.5309780708276908e-31  3.5486983819199216e-31  3.5664183427696632e-31  3.5841379516280266e-31  3.6018572067461554e-31  3.6195761063752294e-31  3.6372946487664628e-31  3.6550128321711056e-31  3.6727306548404438e-31  3.6904481150257982e-31  3.7081652109785254e-31  3.7258819409500199e-31  3.7435983031917081e-31  3.7613142959550565e-31  3.7790299174915658e-31  3.7967451660527753e-31  3.8144600398902597e-31  3.8321745372556318e-31  3.8498886564005396e-31  3.8676023955766693e-31  3.8853157530357455e-31  3.9030287270295295e-31  3.9207413158098228e-31  3.9384535176284610e-31  3.9561653307373204e-31  3.9738767533883153e-31  3.9915877838333976e-31  4.0092984203245588e-31  4.0270086611138314e-31  4.0447185044532829e-31  4.0624279485950213e-31  4.0801369917911948e-31  4.0978456322939917e-31  4.1155538683556374e-31  4.1332616982284008e-31  4.1509691201645887e-31  4.1686761324165497e-31  4.1863827332366711e-31  4.2040889208773796e-31  4.2217946935911465e-31  4.2395000496304809e-31  4.2572049872479337e-31  4.2749095046960981e-31  4.2926136002276100e-31  4.3103172720951422e-31  4.3280205185514156e-31  4.3457233378491881e-31  4.3634257282412619e-31  4.3811276879804815e-31  4.3988292153197325e-31  4.4165303085119461e-31  4.4342309658100928e-31  4.4519311854671878e-31  4.4696309657362883e-31  4.4873303048704981e-31  4.5050292011229612e-31  4.5227276527468678e-31  4.5404256579954495e-31  4.5581232151219834e-31  4.5758203223797905e-31  4.5935169780222370e-31  4.6112131803027324e-31  4.6289089274747342e-31  4.6466042177917401e-31  4.6642990495072952e-31  4.6819934208749875e-31  4.6996873301484540e-31  4.7173807755813775e-31  4.7350737554274841e-31  4.7527662679405467e-31  4.7704583113743829e-31  4.7881498839828590e-31  4.8058409840198863e-31  4.8235316097394249e-31  4.8412217593954790e-31  4.8589114312421006e-31  4.8766006235333892e-31  4.8942893345234916e-31  4.9119775624666019e-31  4.9296653056169605e-31  4.9473525622288605e-31  4.9650393305566361e-31  4.9827256088546748e-31  5.0004113953774098e-31  5.0180966883793252e-31  5.0357814861149538e-31  5.0534657868388759e-31  5.0711495888057193e-31  5.0888328902701621e-31  5.1065156894869346e-31  5.1241979847108140e-31  5.1418797741966285e-31  5.1595610561992544e-31  5.1772418289736197e-31  5.1949220907746997e-31  5.2126018398575240e-31  5.2302810744771729e-31  5.2479597928887724e-31  5.2656379933475062e-31  5.2833156741086036e-31  5.3009928334273472e-31  5.3186694695590723e-31  5.3363455807591659e-31  5.3540211652830647e-31  5.3716962213862573e-31  5.3893707473242873e-31  5.4070447413527484e-31  5.4247182017272858e-31  5.4423911267036035e-31  5.4600635145374493e-31  5.4777353634846304e-31  5.4954066718010050e-31  5.5130774377424854e-31  5.5307476595650358e-31  5.5484173355246762e-31  5.5660864638774776e-31  5.5837550428795696e-31  5.6014230707871334e-31  5.6190905458564021e-31  5.6367574663436663e-31  5.6544238305052720e-31  5.6720896365976212e-31  5.6897548828771657e-31  5.7074195676004180e-31  5.7250836890239428e-31  5.7427472454043594e-31  5.7604102349983465e-31  5.7780726560626355e-31  5.7957345068540161e-31  5.8133957856293355e-31  5.8310564906454911e-31  5.8487166201594439e-31  5.8663761724282088e-31  5.8840351457088569e-31  5.9016935382585198e-31  5.9193513483343807e-31  5.9370085741936867e-31  5.9546652140937358e-31  5.9723212662918906e-31  5.9899767290455674e-31  6.0076316006122419e-31  6.0252858792494503e-31  6.0429395632147803e-31  6.0605926507658882e-31  6.0782451401604791e-31  6.0958970296563256e-31  6.1135483175112573e-31  6.1311990019831589e-31  6.1488490813299782e-31  6.1664985538097217e-31  6.1841474176804581e-31  6.2017956712003163e-31  6.2194433126274781e-31  6.2370903402201942e-31  6.2547367522367716e-31  6.2723825469355801e-31  6.2900277225750483e-31  6.3076722774136689e-31  6.3253162097099948e-31  6.3429595177226384e-31  6.3606021997102773e-31  6.3782442539316437e-31  6.3958856786455405e-31  6.4135264721108278e-31  6.4311666325864275e-31  6.4488061583313295e-31  6.4664450476045772e-31  6.4840832986652860e-31  6.5017209097726296e-31  6.5193578791858434e-31  6.5369942051642327e-31  6.5546298859671570e-31  6.5722649198540469e-31  6.5898993050843924e-31  6.6075330399177529e-31  6.6251661226137499e-31  6.6427985514320616e-31  6.6604303246324410e-31  6.6780614404747004e-31  6.6956918972187188e-31  6.7133216931244408e-31  6.7309508264518742e-31  6.7485792954610966e-31  6.7662070984122429e-31  6.7838342335655220e-31  6.8014606991812036e-31  6.8190864935196264e-31  6.8367116148411940e-31  6.8543360614063757e-31  6.8719598314757098e-31  6.8895829233097979e-31  6.9072053351693125e-31  6.9248270653149933e-31  6.9424481120076407e-31  6.9600684735081312e-31  6.9776881480774000e-31  6.9953071339764602e-31  7.0129254294663853e-31  7.0305430328083182e-31  7.0481599422634725e-31  7.0657761560931258e-31  7.0833916725586302e-31  7.1010064899214043e-31  7.1186206064429333e-31  7.1362340203847769e-31  7.1538467300085569e-31  7.1714587335759730e-31  7.1890700293487845e-31  7.2066806155888314e-31  7.2242904905580184e-31  7.2418996525183157e-31  7.2595080997317737e-31  7.2771158304605061e-31  7.2947228429667008e-31  7.3123291355126169e-31  7.3299347063605789e-31  7.3475395537729896e-31  7.3651436760123188e-31  7.3827470713411113e-31  7.4003497380219778e-31  7.4179516743176059e-31  7.4355528784907578e-31  7.4531533488042603e-31  7.4707530835210176e-31  7.4883520809040036e-31  7.5059503392162721e-31  7.5235478567209417e-31  7.5411446316812073e-31  7.5587406623603379e-31  7.5763359470216730e-31  7.5939304839286288e-31  7.6115242713446900e-31  7.6291173075334236e-31  7.6467095907584675e-31  7.6643011192835307e-31  7.6818918913724026e-31  7.6994819052889373e-31  7.7170711592970743e-31  7.7346596516608226e-31  7.7522473806442662e-31  7.7698343445115683e-31  7.7874205415269633e-31  7.8050059699547645e-31  7.8225906280593602e-31  7.8401745141052110e-31  7.8577576263568611e-31  7.8753399630789224e-31  7.8929215225360925e-31  7.9105023029931340e-31  7.9280823027149004e-31  7.9456615199663162e-31  7.9632399530123742e-31  7.9808176001181584e-31  7.9983944595488243e-31  8.0159705295696067e-31  8.0335458084458153e-31  8.0511202944428370e-31  8.0686939858261430e-31  8.0862668808612759e-31  8.1038389778138645e-31  8.1214102749496145e-31  8.1389807705343016e-31  8.1565504628337928e-31  8.1741193501140250e-31  8.1916874306410210e-31  8.2092547026808823e-31  8.2268211644997824e-31  8.2443868143639893e-31  8.2619516505398375e-31  8.2795156712937474e-31  8.2970788748922217e-31  8.3146412596018420e-31  8.3322028236892739e-31  8.3497635654212548e-31  8.3673234830646080e-31  8.3848825748862408e-31  8.4024408391531393e-31  8.4199982741323757e-31  8.4375548780910989e-31  8.4551106492965403e-31  8.4726655860160154e-31  8.4902196865169221e-31  8.5077729490667368e-31  8.5253253719330256e-31  8.5428769533834367e-31  8.5604276916856920e-31  8.5779775851076079e-31  8.5955266319170744e-31  8.6130748303820727e-31  8.6306221787706678e-31  8.6481686753510002e-31  8.6657143183913051e-31  8.6832591061598928e-31  8.7008030369251665e-31  8.7183461089556048e-31  8.7358883205197808e-31  8.7534296698863482e-31  8.7709701553240378e-31  8.7885097751016820e-31  8.8060485274881832e-31  8.8235864107525367e-31  8.8411234231638288e-31  8.8586595629912196e-31  8.8761948285039634e-31  8.8937292179713971e-31  8.9112627296629487e-31  8.9287953618481302e-31  8.9463271127965376e-31  8.9638579807778599e-31  8.9813879640618648e-31  8.9989170609184181e-31  9.0164452696174627e-31  9.0339725884290362e-31  9.0514990156232600e-31  9.0690245494703452e-31  9.0865491882405919e-31  9.1040729302043897e-31  9.1215957736322105e-31  9.1391177167946207e-31  9.1566387579622745e-31  9.1741588954059152e-31  9.1916781273963703e-31  9.2091964522045654e-31  9.2267138681015083e-31  9.2442303733583016e-31  9.2617459662461335e-31  9.2792606450362869e-31  9.2967744080001289e-31  9.3142872534091209e-31  9.3317991795348173e-31  9.3493101846488567e-31  9.3668202670229756e-31  9.3843294249289964e-31  9.4018376566388326e-31  9.4193449604244940e-31  9.4368513345580779e-31  9.4543567773117730e-31  9.4718612869578656e-31  9.4893648617687284e-31  9.5068675000168247e-31  9.5243691999747178e-31  9.5418699599150552e-31  9.5593697781105825e-31  9.5768686528341361e-31  9.5943665823586489e-31  9.6118635649571416e-31  9.6293595989027344e-31  9.6468546824686371e-31  9.6643488139281520e-31  9.6818419915546765e-31  9.6993342136217038e-31  9.7168254784028237e-31  9.7343157841717190e-31  9.7518051292021598e-31  9.7692935117680195e-31  9.7867809301432612e-31  9.8042673826019510e-31  9.8217528674182445e-31  9.8392373828663936e-31  9.8567209272207483e-31  9.8742034987557426e-31  9.8916850957459244e-31  9.9091657164659241e-31  9.9266453591904786e-31  9.9441240221944128e-31  9.9616017037526527e-31  9.9790784021402229e-31  9.9965541156322387e-31  1.0014028842503914e-30  1.0031502581030568e-30  1.0048975329487609e-30  1.0066447086150544e-30  1.0083917849294983e-30  1.0101387617196629e-30  1.0118856388131285e-30  1.0136324160374853e-30  1.0153790932203335e-30  1.0171256701892825e-30  1.0188721467719525e-30  1.0206185227959728e-30  1.0223647980889835e-30  1.0241109724786342e-30  1.0258570457925837e-30  1.0276030178585020e-30  1.0293488885040682e-30  1.0310946575569725e-30  1.0328403248449139e-30  1.0345858901956018e-30  1.0363313534367561e-30  1.0380767143961058e-30  1.0398219729013916e-30  1.0415671287803627e-30  1.0433121818607796e-30  1.0450571319704125e-30  1.0468019789370411e-30  1.0485467225884565e-30  1.0502913627524592e-30  1.0520358992568599e-30  1.0537803319294804e-30  1.0555246605981516e-30  1.0572688850907154e-30  1.0590130052350236e-30  1.0607570208589382e-30  1.0625009317903321e-30  1.0642447378570882e-30  1.0659884388870998e-30  1.0677320347082704e-30  1.0694755251485139e-30  1.0712189100357546e-30  1.0729621891979276e-30  1.0747053624629782e-30  1.0764484296588618e-30  1.0781913906135447e-30  1.0799342451550035e-30  1.0816769931112251e-30  1.0834196343102077e-30  1.0851621685799591e-30  1.0869045957484981e-30  1.0886469156438543e-30  1.0903891280940677e-30  1.0921312329271883e-30  1.0938732299712776e-30  1.0956151190544074e-30  1.0973569000046597e-30  1.0990985726501283e-30  1.1008401368189170e-30  1.1025815923391398e-30  1.1043229390389225e-30  1.1060641767464008e-30  1.1078053052897211e-30  1.1095463244970415e-30  1.1112872341965301e-30  1.1130280342163660e-30  1.1147687243847389e-30  1.1165093045298494e-30  1.1182497744799096e-30  1.1199901340631423e-30  1.1217303831077804e-30  1.1234705214420682e-30  1.1252105488942611e-30  1.1269504652926252e-30  1.1286902704654377e-30  1.1304299642409867e-30  1.1321695464475711e-30  1.1339090169135015e-30  1.1356483754670984e-30  1.1373876219366943e-30  1.1391267561506321e-30  1.1408657779372663e-30  1.1426046871249624e-30  1.1443434835420970e-30  1.1460821670170581e-30  1.1478207373782440e-30  1.1495591944540649e-30  1.1512975380729418e-30  1.1530357680633075e-30  1.1547738842536051e-30  1.1565118864722894e-30  1.1582497745478270e-30  1.1599875483086949e-30  1.1617252075833818e-30  1.1634627522003878e-30  1.1652001819882238e-30  1.1669374967754122e-30  1.1686746963904873e-30  1.1704117806619944e-30  1.1721487494184897e-30  1.1738856024885415e-30  1.1756223397007289e-30  1.1773589608836432e-30  1.1790954658658869e-30  1.1808318544760734e-30  1.1825681265428285e-30  1.1843042818947881e-30  1.1860403203606019e-30  1.1877762417689290e-30  1.1895120459484409e-30  1.1912477327278205e-30  1.1929833019357625e-30  1.1947187534009733e-30  1.1964540869521702e-30  1.1981893024180831e-30  1.1999243996274527e-30  1.2016593784090321e-30  1.2033942385915858e-30  1.2051289800038903e-30  1.2068636024747330e-30  1.2085981058329131e-30  1.2103324899072426e-30  1.2120667545265447e-30  1.2138008995196543e-30  1.2155349247154178e-30  1.2172688299426940e-30  1.2190026150303537e-30  1.2207362798072787e-30  1.2224698241023634e-30  1.2242032477445132e-30  1.2259365505626461e-30  1.2276697323856928e-30  1.2294027930425945e-30  1.2311357323623054e-30  1.2328685501737909e-30  1.2346012463060282e-30  1.2363338205880083e-30  1.2380662728487323e-30  1.2397986029172138e-30  1.2415308106224787e-30  1.2432628957935653e-30  1.2449948582595233e-30  1.2467266978494156e-30  1.2484584143923157e-30  1.2501900077173103e-30  1.2519214776534980e-30  1.2536528240299898e-30  1.2553840466759084e-30  1.2571151454203889e-30  1.2588461200925784e-30  1.2605769705216374e-30  1.2623076965367373e-30  1.2640382979670623e-30  1.2657687746418088e-30  1.2674991263901854e-30  1.2692293530414140e-30  1.2709594544247274e-30  1.2726894303693716e-30  1.2744192807046050e-30  1.2761490052596979e-30  1.2778786038639343e-30  1.2796080763466085e-30  1.2813374225370288e-30  1.2830666422645157e-30  1.2847957353584016e-30  1.2865247016480323e-30  1.2882535409627656e-30  1.2899822531319718e-30  1.2917108379850338e-30  1.2934392953513473e-30  1.2951676250603206e-30  1.2968958269413741e-30  1.2986239008239413e-30  1.3003518465374679e-30  1.3020796639114129e-30  1.3038073527752472e-30  1.3055349129584546e-30  1.3072623442905322e-30  1.3089896466009889e-30  1.3107168197193476e-30  1.3124438634751424e-30  1.3141707776979207e-30  1.3158975622172434e-30  1.3176242168626834e-30  1.3193507414638270e-30  1.3210771358502731e-30  1.3228033998516334e-30  1.3245295332975321e-30  1.3262555360176067e-30  1.3279814078415079e-30  1.3297071485988988e-30  1.3314327581194555e-30  1.3331582362328674e-30  1.3348835827688361e-30  1.3366087975570775e-30  1.3383338804273191e-30  1.3400588312093028e-30  1.3417836497327820e-30  1.3435083358275242e-30  1.3452328893233105e-30  1.3469573100499333e-30  1.3486815978371995e-30  1.3504057525149284e-30  1.3521297739129531e-30  1.3538536618611196e-30  1.3555774161892866e-30  1.3573010367273263e-30  1.3590245233051242e-30  1.3607478757525793e-30  1.3624710938996035e-30  1.3641941775761217e-30  1.3659171266120727e-30  1.3676399408374080e-30  1.3693626200820927e-30  1.3710851641761053e-30  1.3728075729494376e-30  1.3745298462320945e-30  1.3762519838540941e-30  1.3779739856454691e-30  1.3796958514362641e-30  1.3814175810565381e-30  1.3831391743363625e-30  1.3848606311058231e-30  1.3865819511950194e-30  1.3883031344340636e-30  1.3900241806530815e-30  1.3917450896822128e-30  1.3934658613516104e-30  1.3951864954914417e-30  1.3969069919318867e-30  1.3986273505031390e-30  1.4003475710354060e-30  1.4020676533589089e-30  1.4037875973038822e-30  1.4055074027005744e-30  1.4072270693792475e-30  1.4089465971701769e-30  1.4106659859036527e-30  1.4123852354099776e-30  1.4141043455194684e-30  1.4158233160624556e-30  1.4175421468692836e-30  1.4192608377703110e-30  1.4209793885959094e-30  1.4226977991764648e-30  1.4244160693423767e-30  1.4261341989240586e-30  1.4278521877519385e-30  1.4295700356564575e-30  1.4312877424680703e-30  1.4330053080172464e-30  1.4347227321344684e-30  1.4364400146502342e-30  1.4381571553950546e-30  1.4398741541994542e-30  1.4415910108939723e-30  1.4433077253091614e-30  1.4450242972755894e-30  1.4467407266238370e-30  1.4484570131844993e-30  1.4501731567881855e-30  1.4518891572655190e-30  1.4536050144471380e-30  1.4553207281636935e